/*--------------------------------*- C++ -*----------------------------------*\
  =========                 |
  \\      /  F ield         | OpenFOAM: The Open Source CFD Toolbox
   \\    /   O peration     | Website:  https://openfoam.org
    \\  /    A nd           | Version:  6
     \\/     M anipulation  |
\*---------------------------------------------------------------------------*/
FoamFile
{
    version     2.0;
    format      ascii;
    class       surfaceScalarField;
    location    "0.01";
    object      alphaPhi0.phase1;
}
// * * * * * * * * * * * * * * * * * * * * * * * * * * * * * * * * * * * * * //

dimensions      [0 3 -1 0 0 0 0];

internalField   nonuniform List<scalar> 
4900
(
-3.589436487e-51
-4.241713066e-53
-2.107131314e-47
-2.747913567e-49
-1.523232776e-43
-2.697615753e-45
-1.415296825e-38
-2.912166997e-41
-1.519493793e-34
-4.298290431e-37
-7.21345604e-35
-1.074259748e-34
2.013001891e-31
-2.013723237e-31
2.536888927e-34
-1.156172168e-26
-2.019047041e-22
-5.466180301e-26
-2.001451817e-22
-1.759522446e-24
-1.967263748e-22
-3.422665636e-24
-1.917651841e-22
-4.969864713e-24
-1.85424838e-22
-6.353543629e-24
-1.779037979e-22
-7.538638986e-24
-1.694224017e-22
-8.50334046e-24
-1.602098358e-22
-9.238809404e-24
-1.504924382e-22
-9.747890218e-24
-1.404840421e-22
-1.004308017e-23
-1.303787436e-22
-1.014410939e-23
-1.203461495e-22
-1.007545965e-23
-1.105289155e-22
-9.864075194e-24
-1.010422199e-22
-9.537426815e-24
-9.197474414e-23
-9.12200535e-24
-8.339072132e-23
-8.642252887e-24
-7.533265487e-23
-8.119893829e-24
-6.782436937e-23
-7.573601861e-24
-6.087413288e-23
-7.01892879e-24
-5.44776612e-23
-6.468422566e-24
-4.862087948e-23
-5.931869898e-24
-4.328236979e-23
-5.416610383e-24
-3.843547371e-23
-4.92788132e-24
-3.405004904e-23
-4.469163755e-24
-3.009389863e-23
-4.04251017e-24
-2.653390183e-23
-3.648841982e-24
-2.333688446e-23
-3.288210965e-24
-2.0470265e-23
-2.960022932e-24
-1.790251383e-23
-2.663224802e-24
-1.560345897e-23
-2.396457942e-24
-1.354446849e-23
-2.158181589e-24
-1.169853504e-23
-1.946770577e-24
-1.004028414e-23
-1.760591681e-24
-8.545923135e-24
-1.598062851e-24
-7.193143437e-24
-1.457699919e-24
-5.960982794e-24
-1.338156555e-24
-4.82964405e-24
-1.238267776e-24
-3.780241252e-24
-1.157122552e-24
-2.794365255e-24
-1.094244349e-24
-1.853084474e-24
-1.050155934e-24
-9.339449657e-25
-1.028379931e-24
-1.043408683e-24
-1.781029874e-49
-1.638146855e-52
-1.436214391e-47
-7.265624781e-49
-9.523477465e-44
-7.142494291e-45
-6.871071707e-39
-7.53227469e-41
-9.278162888e-35
-1.104594947e-36
-2.40584066e-34
-2.89548579e-34
3.182027039e-30
-3.383807983e-30
5.639714523e-32
-8.116006599e-26
-2.0362485e-22
-1.099799764e-25
-2.01808033e-22
-3.584040956e-24
-1.98273332e-22
-6.973504221e-24
-1.931486827e-22
-1.011896064e-23
-1.866098181e-22
-1.29247642e-23
-1.788684478e-22
-1.532013243e-23
-1.701578764e-22
-1.726171139e-23
-1.607189698e-22
-1.873309934e-23
-1.507877169e-22
-1.974200612e-23
-1.405851836e-22
-2.031583878e-23
-1.303102184e-22
-2.049653208e-23
-1.201348923e-22
-2.033533296e-23
-1.102023898e-22
-1.98880606e-23
-1.006269113e-22
-1.921115859e-23
-9.14950914e-23
-1.835867342e-23
-8.286844726e-23
-1.738015462e-23
-7.478643284e-23
-1.631938085e-23
-6.726975175e-23
-1.521376773e-23
-6.032366883e-23
-1.409429827e-23
-5.394113896e-23
-1.298582338e-23
-4.810564036e-23
-1.190760022e-23
-4.279365277e-23
-1.087396129e-23
-3.797676146e-23
-9.895033447e-24
-3.362339549e-23
-8.977449643e-24
-2.970022649e-23
-8.125016105e-24
-2.617326398e-23
-7.339313196e-24
-2.300868761e-23
-6.620219937e-24
-2.017345684e-23
-5.96636021e-24
-1.763573633e-23
-5.375473999e-24
-1.536517185e-23
-4.844720244e-24
-1.333304694e-23
-4.370919444e-24
-1.151234614e-23
-3.950744804e-24
-9.877746071e-24
-3.580870582e-24
-8.405551921e-24
-3.258086016e-24
-7.073592961e-24
-2.979382899e-24
-5.861088436e-24
-2.742025151e-24
-4.748495678e-24
-2.543610163e-24
-3.717365151e-24
-2.38213455e-24
-2.750294206e-24
-2.256076326e-24
-1.831380351e-24
-2.164461172e-24
-9.489887236e-25
-2.106552149e-24
-2.078821015e-24
-3.88215894e-49
-4.005277866e-51
-8.721960034e-47
-7.480189946e-47
-5.170273722e-43
-5.916808593e-43
-3.375172782e-38
-5.3732407e-39
-3.881563586e-34
-5.632687869e-35
-1.022103002e-33
-6.270417257e-33
1.806013532e-30
-5.194320951e-30
1.842872978e-31
-1.048122997e-25
-2.071435478e-22
-1.714109755e-25
-2.051969196e-22
-5.536977462e-24
-2.014183224e-22
-1.076554528e-23
-1.95954142e-22
-1.560376554e-23
-1.890049765e-22
-1.990142768e-23
-1.808099489e-22
-2.354942594e-23
-1.716293046e-22
-2.648331651e-23
-1.617280134e-22
-2.868196784e-23
-1.513617575e-22
-3.01623662e-23
-1.407661304e-22
-3.097199586e-23
-1.301492951e-22
-3.118021078e-23
-1.196878988e-22
-3.086976298e-23
-1.095257548e-22
-3.012929525e-23
-9.977467106e-23
-2.904724687e-23
-9.051678918e-23
-2.770732156e-23
-8.180785882e-23
-2.61854522e-23
-7.368097346e-23
-2.454806568e-23
-6.615040591e-23
-2.285139095e-23
-5.921529007e-23
-2.114154322e-23
-5.286298772e-23
-1.945513943e-23
-4.707205266e-23
-1.782023922e-23
-4.181475896e-23
-1.625744992e-23
-3.705919776e-23
-1.478107695e-23
-3.277097107e-23
-1.340023866e-23
-2.891452428e-23
-1.21198946e-23
-2.545416519e-23
-1.094175996e-23
-2.235481794e-23
-9.865095077e-24
-1.958255776e-23
-8.88737087e-24
-1.710496796e-23
-8.004817698e-24
-1.489135563e-23
-7.212869559e-24
-1.291285681e-23
-6.506517138e-24
-1.11424569e-23
-5.88058367e-24
-9.554947401e-24
-5.329936954e-24
-8.126835954e-24
-4.849649888e-24
-6.836223918e-24
-4.435120552e-24
-5.662664032e-24
-4.082161599e-24
-4.587012935e-24
-3.787066754e-24
-3.591302404e-24
-3.546657794e-24
-2.658675551e-24
-3.358301644e-24
-1.773453686e-24
-3.219845415e-24
-9.211883201e-25
-3.129318393e-24
-3.084206849e-24
-1.368476604e-48
-1.267408648e-50
-1.305269659e-45
-7.397818304e-47
-7.111462081e-42
-4.959246793e-43
-5.11379686e-37
-3.817064546e-39
-3.986240249e-33
-4.664759153e-35
-4.79391467e-33
-2.15675624e-32
-5.026831155e-30
-1.836370299e-31
1.363062442e-31
-1.177814982e-32
-2.125785872e-22
-2.413355228e-25
-2.10424556e-22
-7.697218188e-24
-2.062558067e-22
-1.494749758e-23
-2.002512697e-22
-2.162856883e-23
-1.926526592e-22
-2.752707654e-23
-1.837437362e-22
-3.249205974e-23
-1.738280395e-22
-3.643932567e-23
-1.632086448e-22
-3.934819958e-23
-1.521717273e-22
-4.125255699e-23
-1.409747511e-22
-4.222858212e-23
-1.298392819e-22
-4.238151593e-23
-1.189478647e-22
-4.183312076e-23
-1.084441168e-22
-4.071095674e-23
-9.843511809e-23
-3.913999132e-23
-8.899524556e-23
-3.723662192e-23
-8.017074805e-23
-3.51049012e-23
-7.198452491e-23
-3.283459767e-23
-6.44407378e-23
-3.050067074e-23
-5.752902396e-23
-2.816375343e-23
-5.122818866e-23
-2.587128859e-23
-4.550933361e-23
-2.365903404e-23
-4.033843082e-23
-2.155272194e-23
-3.567838391e-23
-1.956972186e-23
-3.149063555e-23
-1.772060933e-23
-2.773638613e-23
-1.601058302e-23
-2.437748802e-23
-1.444070333e-23
-2.137707536e-23
-1.300894659e-23
-1.86999823e-23
-1.171108182e-23
-1.631299536e-23
-1.054138551e-23
-1.418497792e-23
-9.493213621e-24
-1.228689826e-23
-8.559451099e-24
-1.059178611e-23
-7.732859123e-24
-9.074637842e-24
-7.006338455e-24
-7.71228615e-24
-6.373125477e-24
-6.48324685e-24
-5.826935092e-24
-5.367553654e-24
-5.362062105e-24
-4.346591108e-24
-4.973449509e-24
-3.402935725e-24
-4.656727176e-24
-2.520209652e-24
-4.4082163e-24
-1.682914309e-24
-4.224884082e-24
-8.760699293e-25
-4.104239393e-24
-4.04427921e-24
-1.523237963e-47
-6.235546155e-50
-9.599893443e-46
-9.887927861e-47
-3.967653551e-42
-6.621891855e-43
-8.706536342e-38
-3.693064028e-39
-1.856319712e-33
-3.401910792e-35
-6.160133911e-32
-2.715323342e-32
-4.341135805e-34
-1.936032932e-31
2.008950654e-28
-2.00858295e-28
-2.201324541e-22
-3.232501947e-25
-2.176734875e-22
-1.016239e-23
-2.129358322e-22
-1.969834003e-23
-2.061490377e-22
-2.84356044e-23
-1.9761723e-22
-3.608588989e-23
-1.87690901e-22
-4.245205996e-23
-1.767370796e-22
-4.743341329e-23
-1.651133757e-22
-5.101868762e-23
-1.531482683e-22
-5.327087818e-23
-1.411282817e-22
-5.430811267e-23
-1.29291512e-22
-5.428404899e-23
-1.178263132e-22
-5.337018087e-23
-1.068737219e-22
-5.174137591e-23
-9.653225866e-23
-4.95651081e-23
-8.686396479e-23
-4.699424517e-23
-7.790081189e-23
-4.416290097e-23
-6.965089515e-23
-4.118471262e-23
-6.210405301e-23
-3.815288908e-23
-5.523673438e-23
-3.514144622e-23
-4.901606023e-23
-3.220714886e-23
-4.340310665e-23
-2.939179429e-23
-3.835548258e-23
-2.672457698e-23
-3.382929687e-23
-2.422436231e-23
-2.978061444e-23
-2.190176607e-23
-2.616649654e-23
-1.976098733e-23
-2.294571056e-23
-1.780137765e-23
-2.007918255e-23
-1.601875241e-23
-1.753025344e-23
-1.440646386e-23
-1.52647886e-23
-1.295626261e-23
-1.325117993e-23
-1.165897687e-23
-1.14602715e-23
-1.050503858e-23
-9.865232301e-24
-9.484883381e-24
-8.441394068e-24
-8.589248891e-24
-7.16606781e-24
-7.809392003e-24
-6.018349085e-24
-7.137242974e-24
-4.978919647e-24
-6.565510411e-24
-4.029850751e-24
-6.087747827e-24
-3.154409985e-24
-5.698388745e-24
-2.336865216e-24
-5.39275392e-24
-1.562259795e-24
-5.167034666e-24
-8.161057146e-25
-5.01827054e-24
-4.944384752e-24
-1.433907528e-48
-1.490529843e-49
-1.266145558e-45
-2.407829686e-46
-4.227221808e-42
-1.350204934e-42
-5.357247781e-38
-7.40020676e-39
-2.082100588e-33
-1.655562153e-34
-1.692140283e-32
-5.411871294e-32
2.449463279e-29
-1.657955727e-30
1.674610715e-23
-1.674627287e-23
-2.301029034e-22
-4.226142837e-25
-2.272075869e-22
-1.306391402e-23
-2.216716836e-22
-2.524743385e-23
-2.137983574e-22
-3.632917691e-23
-2.039829069e-22
-4.592835283e-23
-1.926721995e-22
-5.379644706e-23
-1.803226629e-22
-5.982322603e-23
-1.673661453e-22
-6.402200068e-23
-1.54186256e-22
-6.650399412e-23
-1.411050586e-22
-6.744886802e-23
-1.283785009e-22
-6.707638517e-23
-1.16198329e-22
-6.562223022e-23
-1.046982032e-22
-6.33193465e-23
-9.396205299e-23
-6.038492964e-23
-8.40331775e-23
-5.70124684e-23
-7.492308033e-23
-5.336786395e-23
-6.661943435e-23
-4.958857626e-23
-5.909288835e-23
-4.578483117e-23
-5.230264185e-23
-4.204208716e-23
-4.620084873e-23
-3.84241487e-23
-4.07359818e-23
-3.497648872e-23
-3.585531994e-23
-3.172949081e-23
-3.150672121e-23
-2.870143693e-23
-2.763983252e-23
-2.590115026e-23
-2.420686635e-23
-2.333026111e-23
-2.116305274e-23
-2.098510076e-23
-1.846685357e-23
-1.885825047e-23
-1.608000724e-23
-1.693978409e-23
-1.396745597e-23
-1.521824692e-23
-1.209719476e-23
-1.368141323e-23
-1.044007091e-23
-1.231686177e-23
-8.969554962e-24
-1.111240435e-23
-7.661497631e-24
-1.005639799e-23
-6.493883048e-24
-9.137965918e-24
-5.44658493e-24
-8.347148705e-24
-4.501129784e-24
-7.675002126e-24
-3.640468735e-24
-7.113655075e-24
-2.848756493e-24
-6.656337447e-24
-2.111131448e-24
-6.297386214e-24
-1.413485486e-24
-6.032238962e-24
-7.42215048e-25
-5.857430396e-24
-5.770615978e-24
-2.37466546e-47
-7.321565641e-48
-5.940892445e-44
-5.588826226e-44
-1.654312459e-40
-2.64278672e-40
-2.239421876e-36
-1.161280368e-36
-1.183851604e-31
-7.04748608e-33
-4.014266173e-31
-3.770422878e-29
1.016186268e-24
-1.016194821e-24
2.049340454e-31
-9.461450136e-21
-2.429158334e-22
-7.315896193e-25
-2.393887018e-22
-1.659725566e-23
-2.327515612e-22
-3.189776987e-23
-2.233963159e-22
-4.57046759e-23
-2.118504613e-22
-5.750122989e-23
-1.986990441e-22
-6.69815565e-23
-1.845219829e-22
-7.404057817e-23
-1.698490195e-22
-7.874177659e-23
-1.55132207e-22
-8.127405221e-23
-1.407337309e-22
-8.190692327e-23
-1.269254876e-22
-8.095042996e-23
-1.138965097e-22
-7.872311036e-23
-1.017647346e-22
-7.552899288e-23
-9.059040479e-23
-7.164295866e-23
-8.038924671e-23
-6.730300345e-23
-7.114433283e-23
-6.270767412e-23
-6.281610806e-23
-5.801705033e-23
-5.535045703e-23
-5.335591099e-23
-4.868492625e-23
-4.881804607e-23
-4.275333765e-23
-4.447097862e-23
-3.748907349e-23
-4.03606158e-23
-3.28273093e-23
-3.651554313e-23
-2.870644253e-23
-3.295081637e-23
-2.506892538e-23
-2.967120025e-23
-2.186166964e-23
-2.667386231e-23
-1.90361538e-23
-2.395056434e-23
-1.654833104e-23
-2.148941069e-23
-1.435841015e-23
-1.927621771e-23
-1.243056141e-23
-1.729556771e-23
-1.073258356e-23
-1.553160535e-23
-9.235556431e-24
-1.396862738e-23
-7.913495291e-24
-1.25915096e-23
-6.743016753e-24
-1.138600721e-23
-5.703022e-24
-1.033895867e-23
-4.774399775e-24
-9.438416819e-24
-3.939749553e-24
-8.673726672e-24
-3.183123352e-24
-8.035564566e-24
-2.489782897e-24
-7.515950669e-24
-1.845967209e-24
-7.108244603e-24
-1.238665426e-24
-6.807133725e-24
-6.55394883e-25
-6.608624418e-24
-6.510045785e-24
-2.349040486e-45
-3.858538666e-46
-5.152843519e-42
-2.374216514e-42
-1.160099072e-38
-9.072539094e-39
-2.938627262e-35
-3.366151467e-35
-1.788255832e-31
-1.207157603e-31
4.717411908e-28
-5.553371105e-28
1.067371801e-23
-1.169291162e-23
-9.757819658e-18
-9.468313937e-20
-2.590031321e-22
-1.054869678e-24
-2.546856439e-22
-2.092095612e-23
-2.465559354e-22
-4.00406785e-23
-2.351913715e-22
-5.708950093e-23
-2.213302736e-22
-7.13893602e-23
-2.057583774e-22
-8.258715734e-23
-1.892241075e-22
-9.061515397e-23
-1.723826162e-22
-9.563009744e-23
-1.557665976e-22
-9.794333553e-23
-1.397787987e-22
-9.795432253e-23
-1.246996579e-22
-9.609539551e-23
-1.107037393e-22
-9.279095648e-23
-9.787986674e-23
-8.843076377e-23
-8.62514226e-23
-8.335513057e-23
-7.579470188e-23
-7.784913116e-23
-6.645432056e-23
-7.214298309e-23
-5.815542837e-23
-6.641622443e-23
-5.081292302e-23
-6.080387889e-23
-4.433808378e-23
-5.540334827e-23
-3.864311493e-23
-5.028122461e-23
-3.36440746e-23
-4.547955579e-23
-2.926260589e-23
-4.102133752e-23
-2.542681252e-23
-3.691516069e-23
-2.207154706e-23
-3.315903749e-23
-1.913831337e-23
-2.974348092e-23
-1.657493063e-23
-2.665393479e-23
-1.433506249e-23
-2.387265666e-23
-1.237768245e-23
-2.138015118e-23
-1.066652208e-23
-1.915624107e-23
-9.169531463e-24
-1.718085133e-23
-7.858368832e-24
-1.543456968e-23
-6.707928401e-24
-1.389903531e-23
-5.695909654e-24
-1.255719772e-23
-4.802427931e-24
-1.139347925e-23
-4.009663933e-24
-1.039386727e-23
-3.301548338e-24
-9.545956735e-24
-2.663476909e-24
-8.838958914e-24
-2.082050794e-24
-8.263688583e-24
-1.544836756e-24
-7.812539747e-24
-1.040143028e-24
-7.479458261e-24
-5.568096659e-25
-7.259918633e-24
-7.150909739e-24
-1.111652294e-43
-7.539337662e-45
-8.01262935e-41
-3.586956446e-41
-1.588171875e-37
-1.110357955e-37
-1.425977211e-33
-3.832440004e-34
-5.552613594e-31
-8.213295996e-31
3.535718137e-27
-4.095522852e-27
2.54327915e-23
-3.713187836e-23
-1.391031401e-17
-1.287521539e-19
-2.791581652e-22
-9.783238439e-25
-2.7380018e-22
-2.628515577e-23
-2.63601432e-22
-5.025263127e-23
-2.494895006e-22
-7.122170072e-23
-2.325277396e-22
-8.837816327e-23
-2.137871429e-22
-1.013614707e-22
-1.942405773e-22
-1.102020402e-22
-1.746978121e-22
-1.152197089e-22
-1.557797035e-22
-1.169147277e-22
-1.379219515e-22
-1.158716955e-22
-1.21397129e-22
-1.126860656e-22
-1.063452144e-22
-1.079148233e-22
-9.280563059e-23
-1.020482724e-22
-8.074655141e-23
-9.549796568e-23
-7.008943367e-23
-8.859568556e-23
-6.072822362e-23
-8.159915183e-23
-5.254356017e-23
-7.47012021e-23
-4.541271875e-23
-6.804021637e-23
-3.921616618e-23
-6.171039842e-23
-3.384155881e-23
-5.577114476e-23
-2.918589843e-23
-5.025515239e-23
-2.515641931e-23
-4.517517975e-23
-2.167064283e-23
-4.052952632e-23
-1.865591915e-23
-3.630637183e-23
-1.604868028e-23
-3.248714421e-23
-1.379355696e-23
-2.904908583e-23
-1.184245812e-23
-2.596717378e-23
-1.015367395e-23
-2.321552957e-23
-8.691037202e-24
-2.076843189e-23
-7.423159827e-24
-1.860102535e-23
-6.322750887e-24
-1.668979968e-23
-5.366014471e-24
-1.501289842e-23
-4.532122509e-24
-1.35503028e-23
-3.802755148e-24
-1.228392668e-23
-3.161700522e-24
-1.11976493e-23
-2.594505499e-24
-1.027730685e-23
-2.0881693e-24
-9.510658249e-24
-1.630872285e-24
-8.887337162e-24
-1.21173309e-24
-8.398799332e-24
-8.205886408e-25
-8.038272359e-24
-4.477933585e-25
-7.800713245e-24
-7.682776959e-24
-1.780490272e-42
-5.539516049e-44
-6.508673626e-40
-1.688737844e-40
-1.088372608e-36
-4.295707903e-37
-7.932085349e-33
-1.079755661e-33
-2.023686425e-30
-3.019348661e-30
6.699396465e-27
-1.080764357e-26
1.788939993e-23
-5.503278476e-23
-1.03324468e-17
-1.385722075e-19
-3.048657788e-22
-1.255072677e-24
-2.97761525e-22
-3.339562598e-23
-2.845665131e-22
-6.346085268e-23
-2.666441984e-22
-8.916429112e-23
-2.455111979e-22
-1.095382153e-22
-2.226292809e-22
-1.242771158e-22
-1.992606981e-22
-1.336109576e-22
-1.76395696e-22
-1.381315738e-22
-1.547395894e-22
-1.386241361e-22
-1.347390512e-22
-1.359318749e-22
-1.166282894e-22
-1.308626971e-22
-1.004806803e-22
-1.241344086e-22
-8.625694982e-23
-1.163499535e-22
-7.384553427e-23
-1.079931647e-22
-6.309384498e-23
-9.943684053e-23
-5.383095205e-23
-9.095703388e-23
-4.588303612e-23
-8.274946396e-23
-3.908319189e-23
-7.494558959e-23
-3.327707276e-23
-6.762704918e-23
-2.832562897e-23
-6.083793643e-23
-2.410591746e-23
-5.459483618e-23
-2.051070794e-23
-4.88947893e-23
-1.744739731e-23
-4.372146381e-23
-1.483657999e-23
-3.904983824e-23
-1.261049926e-23
-3.484968841e-23
-1.071151807e-23
-3.108813434e-23
-9.090687843e-24
-2.773146235e-23
-7.706454453e-24
-2.474639763e-23
-6.523515434e-24
-2.210096574e-23
-5.511827045e-24
-1.976505136e-23
-4.645751506e-24
-1.771073741e-23
-3.903330215e-24
-1.591248758e-23
-3.265667377e-24
-1.434721992e-23
-2.716408353e-24
-1.299430682e-23
-2.241298075e-24
-1.183552786e-23
-1.827806089e-24
-1.085499455e-23
-1.464806336e-24
-1.003906144e-23
-1.142301262e-24
-9.376233732e-24
-8.511814011e-25
-8.857079148e-24
-5.830131318e-25
-8.474149479e-24
-3.298488537e-25
-8.221915749e-24
-8.096719202e-24
-1.487086708e-41
-1.891641153e-43
-2.705511046e-39
-4.371554044e-40
-3.244357765e-36
-9.448577912e-37
-6.748615542e-33
-1.879806404e-33
-4.529418478e-30
-3.188683677e-30
-9.614074846e-27
-1.209593699e-27
-5.489030575e-23
-1.663264712e-25
-2.688821416e-18
-2.582409049e-24
-3.376502994e-22
-2.561968086e-24
-3.278192829e-22
-4.323286104e-23
-3.10265217e-22
-8.102813277e-23
-2.870166303e-22
-1.124331608e-22
-2.602512283e-22
-1.363306782e-22
-2.319660245e-22
-1.525960588e-22
-2.037851626e-22
-1.618321676e-22
-1.768923908e-22
-1.650712242e-22
-1.520512873e-22
-1.635185593e-22
-1.296733909e-22
-1.583694322e-22
-1.099029555e-22
-1.506990234e-22
-9.269859611e-23
-1.414107674e-22
-7.790198794e-23
-1.312245372e-22
-6.529056298e-23
-1.206883997e-22
-5.46149975e-23
-1.102018999e-22
-4.562402638e-23
-1.000430237e-22
-3.807956185e-23
-9.039430532e-23
-3.176486759e-23
-8.136584492e-23
-2.64880413e-23
-7.301444031e-23
-2.208251422e-23
-6.535884562e-23
-1.840579054e-23
-5.839156736e-23
-1.533725982e-23
-5.208775617e-23
-1.277562361e-23
-4.641176382e-23
-1.063626902e-23
-4.132187956e-23
-8.848779954e-24
-3.677367925e-23
-7.354683006e-24
-3.272233747e-23
-6.105466414e-24
-2.912417663e-23
-5.06087496e-24
-2.593766351e-23
-4.18746423e-24
-2.312401137e-23
-3.45738794e-24
-2.064750559e-23
-2.847388552e-24
-1.847563947e-23
-2.337961451e-24
-1.657912314e-23
-1.912664984e-24
-1.493181125e-23
-1.557551518e-24
-1.351058194e-23
-1.260697888e-24
-1.229519017e-23
-1.011816639e-24
-1.126811171e-23
-8.019324018e-25
-1.041438907e-23
-6.231101735e-25
-9.721487128e-24
-4.682246335e-25
-9.17916401e-24
-3.307614697e-25
-8.779360565e-24
-2.046433336e-25
-8.516110906e-24
-8.385475149e-24
-6.154201341e-41
-7.218807987e-42
-1.307635018e-38
-2.222864317e-38
-1.510582211e-35
-4.028054883e-35
-2.951251352e-32
-9.150918957e-32
-1.78083392e-29
-9.203092208e-29
-1.09804081e-27
-5.434914997e-27
1.097952274e-24
-2.117619808e-24
2.099694448e-32
-2.457723003e-21
-3.79617292e-22
-6.159098487e-24
-3.656058702e-22
-5.725050368e-23
-3.416647876e-22
-1.049824338e-22
-3.109135447e-22
-1.432046936e-22
-2.765195672e-22
-1.707517259e-22
-2.41207193e-22
-1.879421829e-22
-2.070301261e-22
-1.960495949e-22
-1.753455828e-22
-1.968026609e-22
-1.469074287e-22
-1.920100501e-22
-1.22007409e-22
-1.833291316e-22
-1.006182271e-22
-1.721541169e-22
-8.251505166e-23
-1.595859646e-22
-6.736780839e-23
-1.464497801e-22
-5.480542547e-23
-1.333346182e-22
-4.445701589e-23
-1.206398304e-22
-3.597584761e-23
-1.086192391e-22
-2.905137983e-23
-9.74191797e-23
-2.34135549e-23
-8.710926189e-23
-1.88324099e-23
-7.770618224e-23
-1.511511419e-23
-6.919155658e-23
-1.210180465e-23
-6.152491849e-23
-9.661063056e-24
-5.465296888e-23
-7.685521625e-24
-4.851600484e-23
-6.087849026e-24
-4.305227542e-23
-4.797224101e-24
-3.820084313e-23
-3.756318613e-24
-3.390338689e-23
-2.918763199e-24
-3.010526799e-23
-2.247047774e-24
-2.675609204e-23
-1.710799134e-24
-2.380993392e-23
-1.285378266e-24
-2.122534368e-23
-9.50744079e-25
-1.89652158e-23
-6.905362401e-25
-1.699657902e-23
-4.91336448e-25
-1.529034554e-23
-3.42073859e-25
-1.382104578e-23
-2.335461227e-25
-1.25665661e-23
-1.580325569e-25
-1.150790056e-23
-1.089802677e-25
-1.062892392e-23
-8.074755699e-26
-9.916189954e-24
-6.839194867e-26
-9.358757639e-24
-6.749250024e-26
-8.948046375e-24
-7.399792844e-26
-8.677720688e-24
-8.54360436e-24
-1.780462321e-39
-2.220270429e-40
-1.669544387e-36
-6.796968833e-37
-3.304836192e-33
-1.199972542e-33
-1.419807941e-29
-2.729345732e-30
-2.279762632e-27
-4.768894853e-28
-5.088665631e-27
-1.082769265e-26
2.51981101e-25
-2.382824904e-24
3.160560758e-29
-9.067890284e-22
-4.338625014e-22
-1.472892182e-23
-4.13329412e-22
-7.778981629e-23
-3.798813688e-22
-1.384436989e-22
-3.384621483e-22
-1.846442104e-22
-2.937162684e-22
-2.155246849e-22
-2.493230765e-22
-2.323691354e-22
-2.077920541e-22
-2.376209894e-22
-1.705610926e-22
-2.340805295e-22
-1.382333415e-22
-2.243911539e-22
-1.108377891e-22
-2.107843816e-22
-8.805411802e-23
-1.95003719e-22
-6.938175379e-23
-1.783303716e-22
-5.425460365e-23
-1.616549525e-22
-4.211188158e-23
-1.455612002e-22
-3.243714187e-23
-1.304041168e-22
-2.477612936e-23
-1.16375326e-22
-1.874154389e-23
-1.035542002e-22
-1.401038519e-23
-9.194604223e-23
-1.031758594e-23
-8.15096091e-23
-7.448214902e-24
-7.217637456e-23
-5.229562444e-24
-6.386364519e-23
-3.523796378e-24
-5.64832396e-23
-2.221493555e-24
-4.994704158e-23
-1.236130899e-24
-4.41703964e-23
-4.995000746e-25
-3.907404861e-23
4.204727705e-26
-3.458511446e-23
4.306378356e-25
-3.063743127e-23
6.993134884e-25
-2.717151799e-23
8.739729675e-25
-2.413430488e-23
9.749112136e-25
-2.147873698e-23
1.018035262e-24
-1.916332003e-23
1.01582207e-24
-1.715165204e-23
9.780716909e-25
-1.54119679e-23
9.124989754e-25
-1.391671257e-23
8.251984464e-25
-1.264215196e-23
7.210099844e-25
-1.156802547e-23
6.038073215e-25
-1.067724177e-23
4.767268131e-25
-9.955617312e-24
3.423503656e-25
-9.391656748e-24
2.028536547e-25
-8.976373336e-24
6.012861147e-26
-8.703147933e-24
-8.567624899e-24
-5.252355614e-38
-5.536433894e-40
-1.768372946e-35
-1.069766944e-36
-4.477896185e-32
-1.757645713e-33
-1.015424557e-28
-2.806364774e-30
-7.229589106e-27
-1.057895259e-27
-1.431216346e-26
-2.920221006e-26
4.460340317e-23
-4.7039389e-23
2.104661421e-29
-3.405706344e-20
-5.052134595e-22
-3.536306782e-23
-4.739807223e-22
-1.090287792e-22
-4.260777002e-22
-1.86359946e-22
-3.693489249e-22
-2.413932871e-22
-3.105726927e-22
-2.743280037e-22
-2.545886495e-22
-2.883869499e-22
-2.042645444e-22
-2.879854782e-22
-1.608826498e-22
-2.775093438e-22
-1.246351118e-22
-2.606920592e-22
-9.506340441e-23
-2.40415803e-22
-7.138513485e-23
-2.187479379e-22
-5.270919541e-23
-1.970783736e-22
-3.816259125e-23
-1.762796003e-22
-2.695573738e-23
-1.568519369e-22
-1.840874016e-23
-1.39040685e-22
-1.195502966e-23
-1.229241363e-22
-7.133183873e-24
-1.084765078e-22
-3.573616263e-24
-9.561125939e-23
-9.839461585e-25
-8.420993579e-23
8.649466238e-25
-7.414074425e-23
2.151274993e-24
-6.527007867e-23
3.012816527e-24
-5.74693175e-23
3.555540053e-24
-5.061853152e-23
3.860574093e-24
-4.460822197e-23
3.989758343e-24
-3.933984137e-23
3.990021991e-24
-3.472559275e-23
3.896811212e-24
-3.068782812e-23
3.736757228e-24
-2.715824965e-23
3.52974423e-24
-2.407703904e-23
3.29050658e-24
-2.139199036e-23
3.029858929e-24
-1.905768875e-23
2.755641262e-24
-1.703475694e-23
2.473443345e-24
-1.528917916e-23
2.18715889e-24
-1.379170409e-23
1.899408698e-24
-1.25173246e-23
1.611863208e-24
-1.144482972e-23
1.325488116e-24
-1.055642342e-23
1.040731422e-24
-9.837404572e-24
7.576662189e-25
-9.275903001e-24
4.761004044e-25
-8.862666889e-24
1.956622808e-25
-8.590897571e-24
-8.456128587e-24
-5.077909778e-37
1.075305966e-41
-4.65159476e-35
-1.353183858e-36
-4.163091816e-32
-3.254674403e-33
-7.003755405e-29
-5.427779168e-30
-8.739970164e-26
-8.954004512e-27
-6.701560631e-25
-6.377969967e-24
4.75033715e-21
-4.80359118e-21
1.405668155e-27
-3.304590792e-19
-6.003133065e-22
-8.075228443e-23
-5.513255685e-22
-1.580227454e-22
-4.811121356e-22
-2.565866071e-22
-4.022994362e-22
-3.202262929e-22
-3.246532661e-22
-3.520012659e-22
-2.542086595e-22
-3.588653371e-22
-1.938066985e-22
-3.484278341e-22
-1.440794852e-22
-3.272834892e-22
-1.04368985e-22
-3.004559402e-22
-7.340235015e-23
-2.714421671e-22
-4.971984636e-23
-2.424964078e-22
-3.191287427e-23
-2.149574266e-22
-1.87361303e-23
-1.895344076e-22
-9.14486944e-24
-1.665271016e-22
-2.292065407e-24
-1.459830824e-22
2.493022897e-24
-1.278043482e-22
5.732644937e-24
-1.118166165e-22
7.828353182e-24
-9.781264314e-23
9.085900132e-24
-8.557816628e-23
9.73624255e-24
-7.490659148e-23
9.952623925e-24
-6.560659393e-23
9.864139161e-24
-5.750539869e-23
9.566332583e-24
-5.044952168e-23
9.12938499e-24
-4.430409691e-23
8.604387526e-24
-3.895148404e-23
8.028121351e-24
-3.428957338e-23
7.426682863e-24
-3.023002992e-23
6.818223708e-24
-2.669660919e-23
6.21501549e-24
-2.362361139e-23
5.62500119e-24
-2.095450078e-23
5.052957451e-24
-1.864069529e-23
4.501362405e-24
-1.664051852e-23
3.97104098e-24
-1.491830109e-23
3.46164234e-24
-1.344361564e-23
2.971990795e-24
-1.21906301e-23
2.500341562e-24
-1.113756439e-23
2.044565141e-24
-1.026623782e-23
1.602278337e-24
-9.561695654e-24
1.170935653e-24
-9.011905548e-24
7.478916131e-25
-8.607515798e-24
3.304421577e-25
-8.341669252e-24
-8.20986792e-24
-3.922923888e-36
1.858904375e-37
-3.202159003e-33
2.961648309e-34
-2.527158445e-30
1.967686605e-31
-3.024550046e-27
1.907127018e-29
-2.4205799e-24
-1.778380776e-25
-7.160235151e-23
-1.51602211e-22
3.281395433e-19
-3.335296255e-19
1.479328303e-25
-7.985594871e-17
-7.292773267e-22
-1.745900833e-22
-6.49940079e-22
-2.373662236e-22
-5.447670178e-22
-3.617729003e-22
-4.341084611e-22
-4.309051615e-22
-3.315545956e-22
-4.545822285e-22
-2.438034522e-22
-4.466502681e-22
-1.726869606e-22
-4.195847299e-22
-1.172690686e-22
-3.827483243e-22
-7.536625771e-23
-3.424121445e-22
-4.446315199e-23
-3.024050159e-22
-2.218434142e-23
-2.648411996e-22
-6.49132508e-24
-2.307225403e-22
4.270941904e-24
-2.003747558e-22
1.139962959e-23
-1.737397123e-22
1.588752257e-23
-1.505605892e-22
1.848177014e-23
-1.30493741e-22
1.973766822e-23
-1.131730239e-22
2.006384247e-23
-9.824451659e-23
1.975841257e-23
-8.538344456e-23
1.903708684e-23
-7.430079608e-23
1.805457139e-23
-6.474423869e-23
1.692067715e-23
-5.649609749e-23
1.571233392e-23
-4.937000297e-23
1.448249831e-23
-4.320711226e-23
1.326673113e-23
-3.787238599e-23
1.208803849e-23
-3.325115706e-23
1.096042559e-23
-2.924608726e-23
9.891498605e-24
-2.577453129e-23
8.884364204e-24
-2.276628826e-23
7.939010941e-24
-2.016170322e-23
7.053309041e-24
-1.791007488e-23
6.22372897e-24
-1.596832645e-23
5.445853033e-24
-1.429989998e-23
4.714734634e-24
-1.287383897e-23
4.025145609e-24
-1.166402966e-23
3.371741431e-24
-1.064857562e-23
2.749166275e-24
-9.809284904e-24
2.152114276e-24
-9.131252857e-24
1.57535901e-24
-8.602526677e-24
1.013760205e-24
-8.213840934e-24
4.622544466e-25
-7.95841542e-24
-7.831808959e-24
-1.930406272e-34
1.779727862e-35
-1.597565259e-31
3.56290343e-32
-1.785226219e-28
3.393379986e-29
-2.081437426e-25
2.125918195e-26
-2.576258252e-23
5.528020264e-24
1.605834764e-22
-4.75700874e-22
3.263502839e-18
-3.609194223e-18
4.008893256e-24
-1.145684797e-15
-9.050998037e-22
-3.385230251e-22
-7.744565163e-22
-3.680157437e-22
-6.13947722e-22
-5.222949308e-22
-4.578532855e-22
-5.870199156e-22
-3.236837026e-22
-5.887789155e-22
-2.167837626e-22
-5.53584002e-22
-1.358812748e-22
-5.005276295e-22
-7.695165026e-23
-4.417249014e-22
-3.536949187e-23
-3.840477072e-22
-6.904247805e-24
-3.309300151e-22
1.193271957e-23
-2.837441616e-22
2.38567428e-23
-2.427186755e-22
3.090724297e-23
-2.07503353e-22
3.458043622e-23
-1.774968456e-22
3.595616484e-23
-1.520259498e-22
3.580422155e-23
-1.304369621e-22
3.466776709e-23
-1.12137099e-22
3.292633088e-23
-9.660880075e-23
3.084229771e-23
-8.34101416e-23
2.859471105e-23
-7.216876255e-23
2.630362599e-23
-6.25733374e-23
2.404755016e-23
-5.436463894e-23
2.187588647e-23
-4.732718869e-23
1.981778658e-23
-4.12818888e-23
1.788843713e-23
-3.607973168e-23
1.609351335e-23
-3.159653608e-23
1.443232563e-23
-2.772859671e-23
1.290003401e-23
-2.438911602e-23
1.148919774e-23
-2.150529085e-23
1.019085041e-23
-1.901593946e-23
8.995236639e-24
-1.686957066e-23
7.892307168e-24
-1.502281321e-23
6.872042031e-24
-1.343913801e-23
5.924651258e-24
-1.208781832e-23
5.040688816e-24
-1.094308423e-23
4.211105194e-24
-9.983435798e-24
3.427256904e-24
-9.191087188e-24
2.680885867e-24
-8.55151925e-24
1.964077985e-24
-8.053123288e-24
1.269207485e-24
-7.686922305e-24
5.888717138e-25
-7.446359318e-24
-7.32714497e-24
-1.557945673e-33
1.297265325e-34
-9.977649379e-31
3.087449432e-31
-1.644943812e-27
2.804440538e-28
-2.103440083e-24
2.256776704e-25
-2.121264939e-22
6.510951591e-23
-1.030487758e-20
9.163265141e-21
3.245245441e-18
-6.889056413e-18
7.988374513e-24
-2.261773306e-15
-1.155704514e-21
-5.935299232e-22
-9.289504641e-22
-5.947760285e-22
-6.788028175e-22
-7.724558178e-22
-4.597394568e-22
-8.061035971e-22
-2.885822366e-22
-7.599632478e-22
-1.637867285e-22
-6.784133112e-22
-7.711222169e-23
-5.872425555e-22
-1.929129176e-23
-4.995927923e-22
1.774146733e-23
-4.2113388e-22
4.02804802e-23
-3.535287937e-22
5.295991827e-23
-2.964896056e-22
5.907501014e-23
-2.489058917e-22
6.091704826e-23
-2.094235016e-22
6.005453502e-23
-1.767182871e-22
5.754805734e-23
-1.496091198e-22
5.4106621e-23
-1.270907069e-22
5.019823115e-23
-1.083292563e-22
4.612681493e-23
-9.264312325e-23
4.208520257e-23
-7.947927855e-23
3.819140668e-23
-6.839053961e-23
3.451338053e-23
-5.90155155e-23
3.10858782e-23
-5.106177497e-23
2.792191666e-23
-4.42920982e-23