/*--------------------------------*- C++ -*----------------------------------*\
  =========                 |
  \\      /  F ield         | OpenFOAM: The Open Source CFD Toolbox
   \\    /   O peration     | Website:  https://openfoam.org
    \\  /    A nd           | Version:  6
     \\/     M anipulation  |
\*---------------------------------------------------------------------------*/
FoamFile
{
    version     2.0;
    format      ascii;
    class       volVectorField;
    location    "0.01";
    object      gradT;
}
// * * * * * * * * * * * * * * * * * * * * * * * * * * * * * * * * * * * * * //

dimensions      [0 -1 0 1 0 0 0];

internalField   nonuniform List<vector> 
2500
(
(0 0.0002619540681 0.01003020078)
(0 0.0006804805765 0.01140108968)
(0 0.0007914703152 0.01360636791)
(0 0.0004383962544 0.01560831071)
(0 -0.0004091986993 0.01604181666)
(0 -0.001561492486 0.01366694375)
(0 -0.002597360652 0.008066258899)
(0 -0.001548086778 0.0002079400946)
(0 -3.946622963e-05 1.235792836e-05)
(0 -2.113629548e-06 1.700606871e-06)
(0 -2.452630956e-07 2.798032169e-07)
(0 -3.458717868e-08 4.564566438e-08)
(0 -4.705738596e-09 6.964493122e-09)
(0 -4.235164736e-10 1.694065895e-09)
(0 1.882295438e-10 9.882051051e-10)
(0 -1.411721579e-10 1.035262491e-09)
(0 -7.058607894e-10 1.082319877e-09)
(0 -7.529181753e-10 4.705738596e-11)
(0 4.235164736e-10 1.411721579e-10)
(0 1.411721579e-10 1.035262491e-09)
(0 -8.470329473e-10 2.823443158e-10)
(0 -2.352869298e-10 -2.823443158e-10)
(0 3.764590877e-10 -3.764590877e-10)
(0 9.411477192e-11 4.235164736e-10)
(0 1.882295438e-10 -4.235164736e-10)
(0 3.764590877e-10 4.235164736e-10)
(0 -6.588034034e-10 1.411721579e-10)
(0 0 -4.705738596e-10)
(0 1.882295438e-10 1.882295438e-10)
(0 0 -7.529181753e-10)
(0 4.705738596e-11 -5.646886315e-10)
(0 -9.411477192e-11 -3.764590877e-10)
(0 0 0)
(0 -2.823443158e-10 -4.235164736e-10)
(0 0 -1.411721579e-10)
(0 2.823443158e-10 -7.529181753e-10)
(0 3.764590877e-10 -3.294017017e-10)
(0 9.411477192e-11 -3.764590877e-10)
(0 -5.646886315e-10 -4.705738596e-11)
(0 0 -3.294017017e-10)
(0 5.176312455e-10 1.882295438e-10)
(0 0 5.176312455e-10)
(0 -3.294017017e-10 -1.882295438e-10)
(0 -8.470329473e-10 -2.352869298e-10)
(0 6.588034034e-10 -1.176434649e-09)
(0 7.999755613e-10 2.823443158e-10)
(0 -7.529181753e-10 4.705738596e-11)
(0 -6.588034034e-10 -4.705738596e-10)
(0 3.294017017e-10 -4.705738596e-10)
(0 8.470329473e-10 -3.764590877e-10)
(0 0.001108934735 0.02011090388)
(0 0.002895686551 0.02312843989)
(0 0.003415750804 0.02806071763)
(0 0.001997052497 0.03272991401)
(0 -0.001532168299 0.03415967456)
(0 -0.006414065325 0.02949496064)
(0 -0.01086164301 0.01758904902)
(0 -0.006505814099 0.0004637964666)
(0 -0.0001667732581 3.650829646e-05)
(0 -9.964542649e-06 7.065854731e-06)
(0 -1.409698111e-06 1.431297451e-06)
(0 -2.382044877e-07 2.544863433e-07)
(0 -3.924585989e-08 3.835176956e-08)
(0 -5.552771543e-09 4.752795982e-09)
(0 -8.470329473e-10 4.235164736e-10)
(0 1.882295438e-10 -4.705738596e-10)
(0 -2.823443158e-10 4.705738596e-11)
(0 -1.411721579e-10 -9.411477192e-11)
(0 5.176312455e-10 5.176312455e-10)
(0 0 1.882295438e-10)
(0 -3.764590877e-10 1.035262491e-09)
(0 -4.705738596e-10 7.999755613e-10)
(0 3.294017017e-10 7.529181753e-10)
(0 -1.882295438e-10 6.117460175e-10)
(0 -1.882295438e-10 2.352869298e-10)
(0 1.882295438e-10 5.176312455e-10)
(0 -1.882295438e-10 1.882295438e-10)
(0 4.705738596e-11 6.588034034e-10)
(0 -4.235164736e-10 1.882295438e-10)
(0 -7.999755613e-10 1.882295438e-10)
(0 2.823443158e-10 -2.823443158e-10)
(0 6.588034034e-10 2.352869298e-10)
(0 0 1.411721579e-10)
(0 1.411721579e-10 1.411721579e-10)
(0 -3.294017017e-10 5.176312455e-10)
(0 -5.646886315e-10 1.411721579e-10)
(0 -4.705738596e-11 -7.999755613e-10)
(0 2.352869298e-10 -2.352869298e-10)
(0 6.588034034e-10 -4.235164736e-10)
(0 2.823443158e-10 6.117460175e-10)
(0 2.823443158e-10 2.352869298e-10)
(0 -3.764590877e-10 1.882295438e-10)
(0 -4.235164736e-10 1.882295438e-10)
(0 -1.411721579e-10 5.646886315e-10)
(0 -1.882295438e-10 1.882295438e-10)
(0 4.235164736e-10 -7.999755613e-10)
(0 9.411477192e-11 -7.529181753e-10)
(0 1.411721579e-10 2.823443158e-10)
(0 -2.823443158e-10 8.940903332e-10)
(0 0 -9.411477192e-11)
(0 0.003279490073 0.04904130827)
(0 0.00863029428 0.05710167074)
(0 0.01039294443 0.07048681609)
(0 0.00653735323 0.08366880802)
(0 -0.003644152109 0.08877296621)
(0 -0.01813211794 0.07779753007)
(0 -0.03162852483 0.04696682647)
(0 -0.01910062764 0.001296085723)
(0 -0.0004961967945 0.0001511861578)
(0 -3.719062856e-05 3.813323506e-05)
(0 -7.056584426e-06 8.537997994e-06)
(0 -1.427579918e-06 1.564328681e-06)
(0 -2.544863433e-07 2.375927417e-07)
(0 -3.835176956e-08 3.030495656e-08)
(0 -4.988082912e-09 2.870500543e-09)
(0 -4.235164736e-10 -1.882295438e-10)
(0 -4.235164736e-10 -3.294017017e-10)
(0 -2.823443158e-10 -1.882295438e-10)
(0 7.529181753e-10 -7.999755613e-10)
(0 6.588034034e-10 -4.705738596e-11)
(0 -2.823443158e-10 -3.294017017e-10)
(0 -5.176312455e-10 -2.352869298e-10)
(0 1.411721579e-10 1.411721579e-10)
(0 -3.764590877e-10 -5.176312455e-10)
(0 1.411721579e-10 9.411477192e-11)
(0 2.823443158e-10 9.411477192e-11)
(0 -4.705738596e-10 -4.235164736e-10)
(0 0 -3.294017017e-10)
(0 -3.764590877e-10 -4.705738596e-10)
(0 -4.235164736e-10 -3.764590877e-10)
(0 9.411477192e-11 2.823443158e-10)
(0 3.764590877e-10 -5.646886315e-10)
(0 -9.411477192e-11 -3.294017017e-10)
(0 4.705738596e-11 0)
(0 0 0)
(0 -9.882051051e-10 1.411721579e-10)
(0 4.705738596e-11 0)
(0 4.705738596e-10 1.882295438e-10)
(0 2.352869298e-10 -2.823443158e-10)
(0 6.588034034e-10 -4.235164736e-10)
(0 4.705738596e-11 -4.705738596e-10)
(0 0 -8.470329473e-10)
(0 4.705738596e-11 1.882295438e-10)
(0 -8.940903332e-10 -4.235164736e-10)
(0 -6.588034034e-10 1.411721579e-10)
(0 -9.411477192e-11 -3.294017017e-10)
(0 2.352869298e-10 -7.999755613e-10)
(0 9.882051051e-10 -2.823443158e-10)
(0 0 -4.705738596e-10)
(0 4.705738596e-11 -9.411477192e-11)
(0 0.00916929739 0.1206450033)
(0 0.02434119446 0.1422305513)
(0 0.029982888 0.1786358666)
(0 0.02028320257 0.2158440477)
(0 -0.007403446206 0.2329856476)
(0 -0.04822020512 0.2075381532)
(0 -0.08736308731 0.1271555279)
(0 -0.05332145436 0.003832996316)
(0 -0.001424725793 0.0007144540327)
(0 -0.0001526126554 0.0002119890062)
(0 -3.797865154e-05 4.946225367e-05)
(0 -8.53860974e-06 9.120944891e-06)
(0 -1.573222527e-06 1.382404827e-06)
(0 -2.403220701e-07 1.779239763e-07)
(0 -3.138727643e-08 1.97641021e-08)
(0 -3.058730087e-09 1.788180666e-09)
(0 -2.352869298e-10 9.411477192e-11)
(0 -6.588034034e-10 -4.705738596e-11)
(0 7.058607894e-10 1.411721579e-10)
(0 4.705738596e-10 -4.235164736e-10)
(0 -5.646886315e-10 -2.352869298e-10)
(0 0 1.882295438e-10)
(0 4.705738596e-11 3.764590877e-10)
(0 -1.411721579e-10 1.411721579e-10)
(0 3.764590877e-10 6.588034034e-10)
(0 -3.294017017e-10 -4.705738596e-11)
(0 -7.058607894e-10 4.705738596e-11)
(0 4.705738596e-11 -2.823443158e-10)
(0 -4.235164736e-10 -3.294017017e-10)
(0 -4.705738596e-11 0)
(0 9.411477192e-11 2.823443158e-10)
(0 -4.705738596e-11 -2.352869298e-10)
(0 6.117460175e-10 9.411477192e-11)
(0 4.705738596e-10 4.705738596e-10)
(0 -1.882295438e-10 4.705738596e-11)
(0 -5.176312455e-10 -4.705738596e-11)
(0 0 1.411721579e-10)
(0 -9.411477192e-11 -1.411721579e-10)
(0 4.705738596e-11 1.882295438e-10)
(0 9.411477192e-11 -7.058607894e-10)
(0 -9.411477192e-11 9.411477192e-11)
(0 2.352869298e-10 4.705738596e-11)
(0 4.705738596e-11 9.411477192e-11)
(0 -1.882295438e-10 -3.764590877e-10)
(0 -1.411721579e-10 2.823443158e-10)
(0 -5.176312455e-10 2.352869298e-10)
(0 1.411721579e-10 4.705738596e-10)
(0 5.176312455e-10 9.411477192e-11)
(0 -1.411721579e-10 -3.764590877e-10)
(0 5.646886315e-10 5.646886315e-10)
(0 0.02486503804 0.2896699446)
(0 0.06662115757 0.3460104911)
(0 0.08400644067 0.4425705551)
(0 0.0608871342 0.5449926466)
(0 -0.01195004642 0.599529017)
(0 -0.1239622377 0.5442380165)
(0 -0.2353336817 0.3397939104)
(0 -0.1455417015 0.01200049626)
(0 -0.004117204105 0.003581620419)
(0 -0.0007021824076 0.001150005668)
(0 -0.0002099246458 0.0002713430989)
(0 -4.950733464e-05 4.984261852e-05)
(0 -9.197554315e-06 7.50151201e-06)
(0 -1.401039552e-06 9.596412719e-07)
(0 -1.811709359e-07 1.070084957e-07)
(0 -2.004644642e-08 1.077614138e-08)
(0 -2.164639754e-09 8.470329473e-10)
(0 -2.352869298e-10 7.058607894e-10)
(0 3.294017017e-10 9.882051051e-10)
(0 2.823443158e-10 9.411477192e-11)
(0 2.823443158e-10 4.705738596e-10)
(0 9.411477192e-11 5.646886315e-10)
(0 1.411721579e-10 2.352869298e-10)
(0 -1.411721579e-10 9.882051051e-10)
(0 -4.705738596e-11 6.117460175e-10)
(0 -2.823443158e-10 7.058607894e-10)
(0 -7.058607894e-10 6.588034034e-10)
(0 -4.235164736e-10 2.352869298e-10)
(0 -9.411477192e-11 0)
(0 1.411721579e-10 3.764590877e-10)
(0 0 -6.117460175e-10)
(0 1.411721579e-10 9.411477192e-11)
(0 5.646886315e-10 3.294017017e-10)
(0 4.705738596e-11 1.411721579e-10)
(0 -4.705738596e-10 -4.235164736e-10)
(0 -9.411477192e-10 -5.176312455e-10)
(0 0 -4.705738596e-10)
(0 4.705738596e-10 -5.176312455e-10)
(0 -3.764590877e-10 0)
(0 5.646886315e-10 -9.411477192e-11)
(0 8.470329473e-10 7.529181753e-10)
(0 0 4.235164736e-10)
(0 -4.235164736e-10 2.352869298e-10)
(0 -6.588034034e-10 0)
(0 0 -9.411477192e-11)
(0 0 1.411721579e-10)
(0 4.705738596e-11 4.705738596e-10)
(0 1.882295438e-10 -4.705738596e-11)
(0 5.176312455e-10 4.705738596e-11)
(0 -1.411721579e-10 2.352869298e-10)
(0 0.0655098438 0.6747109167)
(0 0.177241805 0.8173487295)
(0 0.2289650436 1.065974991)
(0 0.1772416645 1.339878567)
(0 -0.008158076376 1.505494264)
(0 -0.3079553117 1.397396754)
(0 -0.6196006076 0.894134086)
(0 -0.3895337443 0.04048633837)
(0 -0.01227521634 0.01798510125)
(0 -0.003462890023 0.005930180484)
(0 -0.001138141701 0.00139403666)
(0 -0.0002723802437 0.0002538979848)
(0 -5.045615272e-05 3.788048984e-05)
(0 -7.634778527e-06 4.80700609e-06)
(0 -9.802524069e-07 5.327366664e-07)
(0 -1.091731354e-07 5.246898534e-08)
(0 -1.035262491e-08 4.65868121e-09)
(0 -5.176312455e-10 8.940903332e-10)
(0 4.705738596e-11 4.235164736e-10)
(0 -4.705738596e-11 4.705738596e-10)
(0 -9.411477192e-11 -1.411721579e-10)
(0 -1.882295438e-10 -1.882295438e-10)
(0 4.705738596e-10 -1.411721579e-10)
(0 1.882295438e-10 5.176312455e-10)
(0 9.411477192e-11 2.352869298e-10)
(0 -2.823443158e-10 9.411477192e-11)
(0 -1.176434649e-09 2.352869298e-10)
(0 -6.588034034e-10 1.411721579e-10)
(0 -1.882295438e-10 3.294017017e-10)
(0 -6.588034034e-10 0)
(0 -2.823443158e-10 1.411721579e-10)
(0 9.411477192e-10 -3.764590877e-10)
(0 6.117460175e-10 -1.411721579e-10)
(0 -2.823443158e-10 -9.411477192e-10)
(0 -8.470329473e-10 -9.411477192e-11)
(0 -5.176312455e-10 2.823443158e-10)
(0 -4.705738596e-11 -1.411721579e-10)
(0 4.705738596e-10 4.705738596e-10)
(0 5.176312455e-10 5.646886315e-10)
(0 7.999755613e-10 4.705738596e-10)
(0 3.764590877e-10 -1.411721579e-10)
(0 -3.294017017e-10 -5.176312455e-10)
(0 -3.764590877e-10 -1.411721579e-10)
(0 -5.176312455e-10 -4.705738596e-11)
(0 -4.705738596e-11 -5.646886315e-10)
(0 1.411721579e-10 -4.235164736e-10)
(0 0 -4.705738596e-11)
(0 0 4.705738596e-11)
(0 1.411721579e-10 -4.705738596e-11)
(0 3.294017017e-10 -6.117460175e-10)
(0 0.1675028509 1.521022444)
(0 0.4578852321 1.870503722)
(0 0.6065362787 2.490622533)
(0 0.5004064067 3.200900183)
(0 0.04556814011 3.682746186)
(0 -0.7353224153 3.509174703)
(0 -1.592244097 2.318209013)
(0 -1.021690686 0.1466452071)
(0 -0.03867336204 0.08706035924)
(0 -0.017293247 0.02866278409)
(0 -0.005886207098 0.006664972343)
(0 -0.001405663458 0.001201059638)
(0 -0.000258288533 0.0001775211651)
(0 -3.874883978e-05 2.234214099e-05)
(0 -4.935660984e-06 2.458701359e-06)
(0 -5.48171489e-07 2.412632178e-07)
(0 -5.378659215e-08 2.117582368e-08)
(0 -4.470451666e-09 1.270549421e-09)
(0 -4.705738596e-11 -3.294017017e-10)
(0 -2.352869298e-10 -2.352869298e-10)
(0 -4.235164736e-10 4.705738596e-11)
(0 4.705738596e-11 -1.882295438e-10)
(0 8.470329473e-10 -3.294017017e-10)
(0 1.882295438e-10 -2.823443158e-10)
(0 -4.235164736e-10 -9.411477192e-11)
(0 -2.823443158e-10 -2.823443158e-10)
(0 -6.117460175e-10 -9.411477192e-11)
(0 -2.823443158e-10 1.411721579e-10)
(0 -2.823443158e-10 3.294017017e-10)
(0 0 -3.764590877e-10)
(0 -3.764590877e-10 6.588034034e-10)
(0 -9.411477192e-11 -4.705738596e-11)
(0 -4.705738596e-11 4.705738596e-11)
(0 9.411477192e-11 -3.294017017e-10)
(0 7.058607894e-10 4.235164736e-10)
(0 -9.882051051e-10 8.470329473e-10)
(0 1.882295438e-10 -4.705738596e-11)
(0 1.129377263e-09 9.411477192e-10)
(0 -3.764590877e-10 5.176312455e-10)
(0 -9.411477192e-11 -9.411477192e-11)
(0 -1.411721579e-10 -7.058607894e-10)
(0 0 -3.764590877e-10)
(0 9.411477192e-11 4.705738596e-11)
(0 -1.035262491e-09 4.705738596e-11)
(0 -3.764590877e-10 9.411477192e-11)
(0 4.235164736e-10 -4.705738596e-10)
(0 5.176312455e-10 -2.352869298e-10)
(0 2.352869298e-10 4.705738596e-10)
(0 -1.411721579e-10 4.705738596e-11)
(0 4.705738596e-10 -5.176312455e-10)
(0 0.4149911223 3.311819017)
(0 1.146841895 4.138642902)
(0 1.559361505 5.633569174)
(0 1.369365317 7.415778955)
(0 0.3001164433 8.760445804)
(0 -1.672492485 8.608473719)
(0 -3.982130103 5.924694995)
(0 -2.620682398 0.5534470377)
(0 -0.1302576395 0.3973950498)
(0 -0.08385827687 0.1288259287)
(0 -0.02859986615 0.02953279911)
(0 -0.006759831468 0.005261057161)
(0 -0.00122917365 0.0007702469636)
(0 -0.0001826971481 9.615527429e-05)
(0 -2.308113018e-05 1.050476144e-05)
(0 -2.546651613e-06 1.024109891e-06)
(0 -2.503452933e-07 8.997372195e-08)
(0 -2.206991401e-08 6.729206192e-09)
(0 -1.458778965e-09 -1.411721579e-10)
(0 3.294017017e-10 -5.176312455e-10)
(0 0 -2.823443158e-10)
(0 -5.646886315e-10 0)
(0 3.294017017e-10 -9.411477192e-10)
(0 4.705738596e-10 -8.940903332e-10)
(0 9.411477192e-11 1.411721579e-10)
(0 -2.823443158e-10 1.411721579e-10)
(0 -7.529181753e-10 -2.823443158e-10)
(0 -2.352869298e-10 4.705738596e-11)
(0 -7.999755613e-10 -3.764590877e-10)
(0 -3.764590877e-10 4.705738596e-11)
(0 9.411477192e-11 -3.764590877e-10)
(0 2.823443158e-10 4.235164736e-10)
(0 3.764590877e-10 -3.294017017e-10)
(0 1.411721579e-10 4.705738596e-10)
(0 3.764590877e-10 -3.294017017e-10)
(0 -1.035262491e-09 1.411721579e-10)
(0 0 6.117460175e-10)
(0 1.082319877e-09 -4.235164736e-10)
(0 -4.705738596e-10 -3.294017017e-10)
(0 -4.705738596e-10 -4.705738596e-11)
(0 9.411477192e-11 -3.764590877e-10)
(0 4.235164736e-10 2.823443158e-10)
(0 0 -4.235164736e-10)
(0 -4.705738596e-10 0)
(0 -4.705738596e-10 7.058607894e-10)
(0 -1.411721579e-10 4.235164736e-10)
(0 8.940903332e-10 2.823443158e-10)
(0 2.352869298e-10 1.882295438e-10)
(0 -8.470329473e-10 1.882295438e-10)
(0 7.999755613e-10 3.764590877e-10)
(0 0.9943267363 6.948911934)
(0 2.779635389 8.832945017)
(0 3.883672332 12.30720957)
(0 3.627283037 16.62281262)
(0 1.238262904 20.2197306)
(0 -3.571073225 20.59147124)
(0 -9.647270779 14.91693901)
(0 -6.548990631 2.091219901)
(0 -0.463294471 1.689489943)
(0 -0.3851554977 0.5357455265)
(0 -0.1294510786 0.120910463)
(0 -0.03016821561 0.02128820298)
(0 -0.005423190466 0.003087654192)
(0 -0.000798491089 0.0003824279877)
(0 -0.0001000668254 4.149285007e-05)
(0 -1.096300626e-05 4.018936048e-06)
(0 -1.071167277e-06 3.524598208e-07)
(0 -9.453828839e-08 2.790502987e-08)
(0 -7.293894824e-09 1.647008509e-09)
(0 -3.764590877e-10 -5.176312455e-10)
(0 9.411477192e-11 -8.470329473e-10)
(0 -5.176312455e-10 -7.058607894e-10)
(0 -9.411477192e-11 -2.823443158e-10)
(0 1.270549421e-09 -3.294017017e-10)
(0 6.117460175e-10 -2.352869298e-10)
(0 -7.058607894e-10 -6.588034034e-10)
(0 -7.529181753e-10 -1.882295438e-10)
(0 -3.764590877e-10 -1.882295438e-10)
(0 -1.882295438e-10 0)
(0 0 3.764590877e-10)
(0 -4.705738596e-11 3.294017017e-10)
(0 -4.705738596e-11 -1.411721579e-10)
(0 0 -4.705738596e-11)
(0 9.411477192e-11 -5.176312455e-10)
(0 3.764590877e-10 -5.176312455e-10)
(0 -4.705738596e-11 -3.764590877e-10)
(0 -3.294017017e-10 -9.411477192e-11)
(0 1.882295438e-10 0)
(0 -4.705738596e-11 -7.058607894e-10)
(0 -1.882295438e-10 -1.411721579e-10)
(0 2.352869298e-10 3.294017017e-10)
(0 4.705738596e-11 3.764590877e-10)
(0 -2.352869298e-10 -4.705738596e-10)
(0 4.705738596e-11 0)
(0 0 -9.411477192e-11)
(0 0 3.294017017e-10)
(0 2.352869298e-10 -4.235164736e-10)
(0 1.882295438e-10 -9.411477192e-11)
(0 1.411721579e-10 0)
(0 -1.411721579e-10 -4.705738596e-11)
(0 2.299024206 14.01296149)
(0 6.50513953 18.13560889)
(0 9.349229103 25.89644341)
(0 9.281886349 35.94918563)
(0 4.268775072 45.15210175)
(0 -6.975284076 47.89542157)
(0 -22.48238145 36.91193215)
(0 -15.84813146 7.646582103)
(0 -1.685732014 6.64100824)
(0 -1.652437757 2.054192938)
(0 -0.5430571897 0.4562186775)
(0 -0.1245826403 0.07939930598)
(0 -0.02213494869 0.01141215635)
(0 -0.003228858443 0.001402868014)
(0 -0.0004014901818 0.0001512173098)
(0 -4.368704186e-05 1.456242572e-05)
(0 -4.241376311e-06 1.271067052e-06)
(0 -3.728827263e-07 1.017380684e-07)
(0 -2.992849747e-08 7.717411297e-09)
(0 -2.164639754e-09 4.705738596e-10)
(0 -1.411721579e-10 1.411721579e-10)
(0 0 -1.411721579e-10)
(0 7.529181753e-10 9.411477192e-10)
(0 4.705738596e-10 4.235164736e-10)
(0 -1.882295438e-10 -4.235164736e-10)
(0 -2.352869298e-10 -1.411721579e-10)
(0 -2.823443158e-10 3.764590877e-10)
(0 -9.411477192e-11 4.705738596e-11)
(0 -2.352869298e-10 7.058607894e-10)
(0 0 -1.882295438e-10)
(0 -4.705738596e-10 4.705738596e-11)
(0 -9.411477192e-11 -2.823443158e-10)
(0 4.705738596e-11 7.529181753e-10)
(0 -3.764590877e-10 4.705738596e-11)
(0 4.705738596e-10 0)
(0 -5.176312455e-10 -4.705738596e-11)
(0 3.294017017e-10 -4.705738596e-10)
(0 4.235164736e-10 3.294017017e-10)
(0 -5.646886315e-10 -1.882295438e-10)
(0 6.117460175e-10 -3.764590877e-10)
(0 5.646886315e-10 3.764590877e-10)
(0 -3.764590877e-10 1.411721579e-10)
(0 -3.764590877e-10 -4.705738596e-10)
(0 -9.411477192e-11 -4.705738596e-10)
(0 -9.411477192e-11 -6.117460175e-10)
(0 -5.176312455e-10 -9.411477192e-11)
(0 5.646886315e-10 -1.411721579e-10)
(0 6.117460175e-10 1.882295438e-10)
(0 -8.940903332e-10 -1.882295438e-10)
(0 8.940903332e-10 -7.999755613e-10)
(0 5.11697413 27.0734569)
(0 14.66311731 35.70794865)
(0 21.69724908 52.31487513)
(0 22.88294138 74.75698298)
(0 13.18449885 97.20304436)
(0 -11.81124283 107.911301)
(0 -49.89611025 89.36463748)
(0 -36.81991454 26.43240505)
(0 -6.055683635 24.01886591)
(0 -6.56994506 7.241282772)
(0 -2.104244711 1.582864036)
(0 -0.4749747367 0.2724027263)
(0 -0.08341962834 0.03881460332)
(0 -0.01205943018 0.004737418475)
(0 -0.001488372414 0.0005075155075)
(0 -0.000160909249 4.860627982e-05)
(0 -1.553185492e-05 4.221612209e-06)
(0 -1.357887929e-06 3.36507367e-07)
(0 -1.086084468e-07 2.503452933e-08)
(0 -7.952698227e-09 2.023467596e-09)
(0 -5.176312455e-10 4.235164736e-10)
(0 1.882295438e-10 4.235164736e-10)
(0 5.646886315e-10 9.882051051e-10)
(0 -9.411477192e-11 2.823443158e-10)
(0 0 4.705738596e-11)
(0 4.705738596e-11 2.352869298e-10)
(0 -5.176312455e-10 4.705738596e-11)
(0 -4.705738596e-11 1.411721579e-10)
(0 -4.705738596e-10 0)
(0 -7.058607894e-10 0)
(0 -4.705738596e-11 -8.470329473e-10)
(0 6.588034034e-10 3.294017017e-10)
(0 3.294017017e-10 0)
(0 -6.588034034e-10 4.705738596e-11)
(0 2.823443158e-10 -3.764590877e-10)
(0 -5.646886315e-10 4.705738596e-10)
(0 9.411477192e-11 6.588034034e-10)
(0 4.705738596e-10 -3.294017017e-10)
(0 -7.999755613e-10 1.411721579e-10)
(0 3.764590877e-10 1.411721579e-10)
(0 7.999755613e-10 -4.705738596e-10)
(0 -8.470329473e-10 1.411721579e-10)
(0 -7.999755613e-10 -3.294017017e-10)
(0 -9.411477192e-11 3.294017017e-10)
(0 3.764590877e-10 1.411721579e-10)
(0 4.705738596e-10 9.411477192e-11)
(0 5.176312455e-10 6.117460175e-10)
(0 1.882295438e-10 -3.764590877e-10)
(0 -8.470329473e-10 -5.646886315e-10)
(0 7.999755613e-10 9.411477192e-11)
(0 10.93351595 49.92690432)
(0 31.74655776 67.1719677)
(0 48.39826344 101.0869072)
(0 54.17005558 148.9026786)
(0 37.42309312 200.8677611)
(0 -14.81369096 234.3269309)
(0 -103.9612774 210.3141049)
(0 -81.19390303 85.12506724)
(0 -20.87685429 79.64282334)
(0 -24.08843964 23.4099018)
(0 -7.511937235 5.0389772)
(0 -1.668632073 0.8579263198)
(0 -0.2898002565 0.1212455997)
(0 -0.04153594621 0.01469920831)
(0 -0.005090302377 0.001565656123)
(0 -0.0005469809842 0.0001491797721)
(0 -5.251114876e-05 1.289626485e-05)
(0 -4.569413349e-06 1.023074628e-06)
(0 -3.643653395e-07 7.482124367e-08)
(0 -2.677565261e-08 5.082197684e-09)
(0 -1.74112328e-09 3.294017017e-10)
(0 5.646886315e-10 1.411721579e-10)
(0 6.117460175e-10 -2.352869298e-10)
(0 -4.705738596e-10 0)
(0 -3.294017017e-10 -1.411721579e-10)
(0 -1.882295438e-10 -1.882295438e-10)
(0 -3.294017017e-10 -9.411477192e-11)
(0 -1.411721579e-10 -4.705738596e-11)
(0 -3.294017017e-10 -5.646886315e-10)
(0 -8.940903332e-10 1.882295438e-10)
(0 -1.411721579e-10 4.705738596e-11)
(0 7.999755613e-10 -1.411721579e-10)
(0 -2.823443158e-10 -3.294017017e-10)
(0 -7.999755613e-10 -4.705738596e-10)
(0 8.940903332e-10 -1.882295438e-10)
(0 5.646886315e-10 9.411477192e-11)
(0 -4.705738596e-10 4.705738596e-11)
(0 -9.411477192e-11 -5.176312455e-10)
(0 -4.705738596e-11 -1.411721579e-10)
(0 -4.705738596e-11 1.882295438e-10)
(0 6.117460175e-10 -4.235164736e-10)
(0 -2.352869298e-10 4.705738596e-11)
(0 -1.882295438e-10 5.646886315e-10)
(0 3.294017017e-10 7.058607894e-10)
(0 -3.764590877e-10 9.411477192e-11)
(0 4.705738596e-11 -4.705738596e-10)
(0 0 -4.235164736e-10)
(0 -6.117460175e-10 -7.529181753e-10)
(0 -3.764590877e-10 -9.411477192e-11)
(0 1.411721579e-09 4.705738596e-10)
(0 22.36203751 87.48517359)
(0 65.82312022 120.1944401)
(0 103.4279599 186.0340933)
(0 122.6637952 282.8435116)
(0 98.60875117 396.4982717)
(0 -2.364898964 487.5157328)
(0 -199.0979739 477.5429726)
(0 -167.4911961 253.1157287)
(0 -67.77084908 241.393509)
(0 -81.1737912 69.24412869)
(0 -24.65622019 14.68768479)
(0 -5.392706337 2.475463147)
(0 -0.9266467398 0.3471552855)
(0 -0.1317393738 0.0418241471)
(0 -0.01603840091 0.004430989483)
(0 -0.001713669107 0.0004201945045)
(0 -0.0001636885994 3.616755393e-05)
(0 -1.417942565e-05 2.857277418e-06)
(0 -1.126459705e-06 2.089347937e-07)
(0 -8.249159759e-08 1.40701584e-08)
(0 -5.458656771e-09 5.646886315e-10)
(0 -3.294017017e-10 -4.705738596e-11)
(0 3.764590877e-10 -7.529181753e-10)
(0 0 -9.411477192e-10)
(0 -1.411721579e-10 -5.176312455e-10)
(0 9.411477192e-11 -2.352869298e-10)
(0 -4.235164736e-10 -9.411477192e-11)
(0 -5.176312455e-10 -3.764590877e-10)
(0 -2.352869298e-10 -4.705738596e-10)
(0 -4.705738596e-11 1.411721579e-10)
(0 -4.235164736e-10 6.117460175e-10)
(0 2.352869298e-10 -3.294017017e-10)
(0 4.705738596e-11 9.411477192e-11)
(0 -4.705738596e-10 -4.705738596e-11)
(0 8.470329473e-10 -1.411721579e-10)
(0 -3.764590877e-10 -4.705738596e-10)
(0 -5.176312455e-10 -1.411721579e-10)
(0 2.823443158e-10 -4.705738596e-11)
(0 -9.411477192e-11 4.705738596e-11)
(0 9.411477192e-11 9.411477192e-11)
(0 6.117460175e-10 0)
(0 9.411477192e-11 -6.117460175e-10)
(0 -1.411721579e-10 7.058607894e-10)
(0 -5.176312455e-10 -3.764590877e-10)
(0 -7.529181753e-10 -5.176312455e-10)
(0 -4.705738596e-11 -5.176312455e-10)
(0 2.823443158e-10 -6.117460175e-10)
(0 5.176312455e-10 4.705738596e-11)
(0 3.294017017e-10 5.646886315e-10)
(0 4.235164736e-10 -4.235164736e-10)
(0 43.6427825 144.8414032)
(0 130.2954775 203.4820689)
(0 211.0473349 324.4741892)
(0 264.6342339 509.9486504)
(0 242.0953144 743.8100878)
(0 66.23100993 965.9243964)
(0 -338.3612815 1038.325933)
(0 -317.3433666 690.8824583)
(0 -204.7484543 666.9989523)
(0 -250.7942638 186.9692628)
(0 -74.28060277 39.11505308)
(0 -16.00916158 6.53019914)
(0 -2.723439256 0.9092385706)
(0 -0.3842602422 0.1089073945)
(0 -0.04649425497 0.01148104856)
(0 -0.004941802914 0.001084004767)
(0 -0.0004698483288 9.293386682e-05)
(0 -4.052803248e-05 7.315164762e-06)
(0 -3.207572599e-06 5.334895846e-07)
(0 -2.351457576e-07 3.623418719e-08)
(0 -1.590539645e-08 1.835238052e-09)
(0 -8.470329473e-10 -4.235164736e-10)
(0 -2.823443158e-10 -2.823443158e-10)
(0 -1.882295438e-10 -4.235164736e-10)
(0 3.764590877e-10 -4.705738596e-10)
(0 2.352869298e-10 -4.705738596e-10)
(0 -4.705738596e-10 -4.235164736e-10)
(0 -4.705738596e-10 0)
(0 1.411721579e-10 -1.411721579e-10)
(0 2.352869298e-10 9.411477192e-11)
(0 -5.646886315e-10 1.411721579e-10)
(0 2.352869298e-10 0)
(0 0 4.705738596e-11)
(0 -1.035262491e-09 0)
(0 4.705738596e-10 0)
(0 5.176312455e-10 -4.235164736e-10)
(0 0 -1.882295438e-10)
(0 1.411721579e-10 -4.705738596e-11)
(0 0 0)
(0 -4.705738596e-11 2.823443158e-10)
(0 -1.411721579e-10 4.705738596e-11)
(0 5.176312455e-10 -4.705738596e-10)
(0 9.411477192e-11 4.235164736e-10)
(0 -9.411477192e-10 -2.352869298e-10)
(0 -5.176312455e-10 -4.705738596e-11)
(0 -4.705738596e-11 0)
(0 5.646886315e-10 0)
(0 5.646886315e-10 2.823443158e-10)
(0 -8.940903332e-10 4.705738596e-11)
(0 1.317606807e-09 -1.411721579e-10)
(0 81.00270323 224.9247966)
(0 245.4559062 323.7061953)
(0 409.8945414 533.2162409)
(0 541.9996938 868.2161836)
(0 554.5844972 1320.081507)
(0 292.1509458 1812.877186)
(0 -474.139912 2144.587393)
(0 -538.8181765 1723.552747)
(0 -571.6840446 1675.734625)
(0 -709.0576904 459.757536)
(0 -205.0952838 94.95685933)
(0 -43.59852085 15.71422654)
(0 -7.347938485 2.173560004)
(0 -1.029496896 0.2589602899)
(0 -0.1238617907 0.02717624004)
(0 -0.01310178384 0.002555664985)
(0 -0.001240378154 0.0002183097073)
(0 -0.0001065797558 1.712639445e-05)
(0 -8.405484395e-06 1.244950203e-06)
(0 -6.141459441e-07 8.451506518e-08)
(0 -4.206930305e-08 5.317484613e-09)
(0 -2.44698407e-09 2.352869298e-10)
(0 4.235164736e-10 1.411721579e-10)
(0 -1.882295438e-10 1.082319877e-09)
(0 -2.352869298e-10 3.764590877e-10)
(0 1.882295438e-10 -1.882295438e-10)
(0 0 0)
(0 -2.352869298e-10 0)
(0 -1.411721579e-10 -2.352869298e-10)
(0 2.352869298e-10 0)
(0 -5.646886315e-10 -4.705738596e-11)
(0 1.882295438e-10 4.705738596e-11)
(0 4.705738596e-11 -1.411721579e-10)
(0 -5.176312455e-10 4.235164736e-10)
(0 4.235164736e-10 0)
(0 -5.176312455e-10 0)
(0 -1.882295438e-10 9.411477192e-11)
(0 4.705738596e-10 -1.411721579e-10)
(0 1.882295438e-10 -1.882295438e-10)
(0 1.882295438e-10 0)
(0 -1.411721579e-10 9.411477192e-11)
(0 4.705738596e-10 -4.705738596e-11)
(0 9.411477192e-11 -4.705738596e-10)
(0 -9.411477192e-10 -4.705738596e-11)
(0 -5.176312455e-10 1.411721579e-10)
(0 -4.705738596e-11 0)
(0 5.646886315e-10 0)
(0 5.646886315e-10 0)
(0 -4.705738596e-11 0)
(0 4.705738596e-10 8.470329473e-10)
(0 142.4241813 323.6880003)
(0 438.5869219 477.00772)
(0 755.5573231 814.7299762)
(0 1051.4995 1385.962162)
(0 1186.756316 2209.625062)
(0 890.7368962 3204.622875)
(0 -427.6857202 4156.851882)
(0 -786.1961354 3912.904138)
(0 -1468.543665 3817.289709)
(0 -1831.572029 1026.89836)
(0 -518.3239122 209.6068971)
(0 -108.7924609 34.4095363)
(0 -18.17870551 4.730819986)
(0 -2.530644006 0.5609056861)
(0 -0.30289888 0.05862204509)
(0 -0.0318997332 0.005492941794)
(0 -0.003008386919 0.0004676833126)
(0 -0.0002575927895 3.657812962e-05)
(0 -2.024940492e-05 2.651730756e-06)
(0 -1.474778476e-06 1.796180422e-07)
(0 -1.001851747e-07 1.185846126e-08)
(0 -6.023345403e-09 1.082319877e-09)
(0 5.646886315e-10 2.352869298e-10)
(0 -4.705738596e-11 -9.411477192e-11)
(0 -7.999755613e-10 6.117460175e-10)
(0 -1.411721579e-10 8.470329473e-10)
(0 -3.294017017e-10 5.646886315e-10)
(0 -7.058607894e-10 9.411477192e-11)
(0 9.411477192e-11 1.882295438e-10)
(0 4.705738596e-10 4.705738596e-11)
(0 -4.705738596e-10 -1.882295438e-10)
(0 1.411721579e-10 3.764590877e-10)
(0 3.764590877e-10 3.294017017e-10)
(0 -8.940903332e-10 5.176312455e-10)
(0 0 1.411721579e-10)
(0 6.117460175e-10 4.705738596e-11)
(0 -9.411477192e-11 9.411477192e-11)
(0 -1.882295438e-10 -2.352869298e-10)
(0 1.411721579e-10 -3.764590877e-10)
(0 2.352869298e-10 -5.176312455e-10)
(0 -1.411721579e-10 -4.705738596e-11)
(0 0 1.411721579e-10)
(0 0 -4.235164736e-10)
(0 -3.294017017e-10 0)
(0 -4.705738596e-10 2.823443158e-10)
(0 -1.882295438e-10 0)
(0 5.646886315e-10 5.646886315e-10)
(0 5.646886315e-10 0)
(0 -4.705738596e-11 -2.352869298e-10)
(0 4.705738596e-10 -2.352869298e-10)
(0 234.3224229 426.9087644)
(0 736.4978821 639.5621868)
(0 1318.848983 1127.233034)
(0 1936.894779 2004.71951)
(0 2373.245211 3388.454834)
(0 2239.377766 5281.927709)
(0 234.1413506 7409.945149)
(0 -878.380349 8041.270125)
(0 -3457.689823 7859.47006)
(0 -4316.740503 2077.089717)
(0 -1197.584107 419.4741416)
(0 -248.474598 68.36351632)
(0 -41.1965691 9.348052115)
(0 -5.701694837 1.103519842)
(0 -0.6792745349 0.1149080498)
(0 -0.07125614562 0.01073219176)
(0 -0.006696741772 0.0009110955078)
(0 -0.0005716112906 7.106597016e-05)
(0 -4.480409009e-05 5.138619489e-06)
(0 -3.254112354e-06 3.470482214e-07)
(0 -2.206520828e-07 2.164639754e-08)
(0 -1.397604363e-08 5.646886315e-10)
(0 -7.529181753e-10 -1.411721579e-10)
(0 2.823443158e-10 -8.940903332e-10)
(0 6.588034034e-10 -4.705738596e-11)
(0 9.411477192e-11 6.588034034e-10)
(0 -7.058607894e-10 4.705738596e-11)
(0 -5.646886315e-10 1.882295438e-10)
(0 -1.882295438e-10 6.588034034e-10)
(0 -1.882295438e-10 -1.882295438e-10)
(0 -2.352869298e-10 -9.411477192e-11)
(0 7.058607894e-10 -1.411721579e-10)
(0 1.411721579e-10 4.235164736e-10)
(0 -7.058607894e-10 -4.705738596e-11)
(0 0 7.058607894e-10)
(0 -5.646886315e-10 -4.705738596e-11)
(0 -4.705738596e-10 0)
(0 -4.705738596e-11 9.411477192e-11)
(0 0 1.411721579e-10)
(0 4.705738596e-10 0)
(0 5.176312455e-10 0)
(0 9.411477192e-11 9.411477192e-11)
(0 -4.705738596e-11 -4.705738596e-10)
(0 -2.352869298e-10 -4.705738596e-10)
(0 -5.176312455e-10 3.764590877e-10)
(0 2.352869298e-10 9.411477192e-10)
(0 5.646886315e-10 6.117460175e-10)
(0 -2.352869298e-10 9.411477192e-11)
(0 -2.823443158e-10 4.705738596e-11)
(0 9.411477192e-10 0)
(0 355.0776036 514.2431248)
(0 1138.911192 772.2068916)
(0 2120.714646 1383.663575)
(0 3312.7213 2540.080611)
(0 4463.964515 4531.47597)
(0 4912.227211 7674.842221)
(0 2331.656696 11812.29817)
(0 -336.6712239 14861.5078)
(0 -7432.724073 14569.71966)
(0 -9271.567948 3790.611477)
(0 -2527.050113 758.3249449)
(0 -518.9185504 122.7937915)
(0 -85.43870198 16.7101615)
(0 -11.76378807 1.965001104)
(0 -1.39568653 0.2039472673)
(0 -0.1458966875 0.01899389998)
(0 -0.01366951281 0.001608302538)
(0 -0.001163549725 0.000125149165)
(0 -9.096827981e-05 9.029041816e-06)
(0 -6.591657453e-06 6.084520004e-07)