/*--------------------------------*- C++ -*----------------------------------*\
  =========                 |
  \\      /  F ield         | OpenFOAM: The Open Source CFD Toolbox
   \\    /   O peration     | Website:  https://openfoam.org
    \\  /    A nd           | Version:  6
     \\/     M anipulation  |
\*---------------------------------------------------------------------------*/
FoamFile
{
    version     2.0;
    format      ascii;
    class       volVectorField;
    location    "0.01";
    object      Marangoni;
}
// * * * * * * * * * * * * * * * * * * * * * * * * * * * * * * * * * * * * * //

dimensions      [1 -2 -2 0 0 0 0];

internalField   nonuniform List<vector> 
2500
(
(-0 -4.729508511e-45 -1.776212851e-43)
(-0 -9.433679525e-41 -1.551331132e-39)
(-0 -8.907986839e-36 -1.501106991e-34)
(-0 -1.597417007e-31 -5.489211826e-30)
(-0 2.352331571e-29 -9.54209977e-28)
(-0 2.417571496e-29 -2.130529094e-28)
(-0 8.386689594e-22 -2.612412132e-21)
(-0 1.115319387e-11 -1.638766407e-05)
(-0 2.843034775e-13 -9.726251889e-07)
(-0 0 -0)
(-0 0 -0)
(-0 0 -0)
(-0 0 -0)
(-0 0 -0)
(-0 -0 -0)
(-0 0 -0)
(-0 0 -0)
(-0 0 -0)
(-0 -0 -0)
(-0 -0 -0)
(-0 0 -0)
(-0 0 0)
(-0 -0 0)
(-0 -0 -0)
(-0 -0 0)
(-0 -0 -0)
(-0 0 -0)
(-0 -0 0)
(-0 -0 -0)
(-0 -0 0)
(-0 -0 0)
(-0 0 0)
(-0 -0 -0)
(-0 0 0)
(-0 -0 0)
(-0 -0 0)
(-0 -0 0)
(-0 -0 0)
(-0 0 0)
(-0 -0 0)
(-0 -0 -0)
(-0 -0 -0)
(-0 0 0)
(-0 0 0)
(-0 -0 0)
(-0 -0 -0)
(-0 0 -0)
(-0 0 0)
(-0 -0 0)
(-0 -0 0)
(-0 -1.366197351e-44 -2.434915142e-43)
(-0 -2.630052466e-40 -2.066162522e-39)
(-0 -1.867266487e-35 -1.507257383e-34)
(-0 -4.388015378e-31 -6.972447154e-30)
(-0 6.488902997e-29 -1.506519809e-27)
(-0 7.222328217e-28 -3.35111699e-27)
(-0 9.899519201e-19 -1.611118954e-18)
(-0 4.697276906e-11 -3.671716459e-05)
(-0 1.204131767e-12 -2.900699621e-06)
(-0 0 -0)
(-0 0 -0)
(-0 0 -0)
(-0 0 -0)
(-0 0 -0)
(-0 0 -0)
(-0 -0 0)
(-0 0 -0)
(-0 0 0)
(-0 -0 -0)
(-0 -0 -0)
(-0 0 -0)
(-0 0 -0)
(-0 -0 -0)
(-0 0 -0)
(-0 0 -0)
(-0 -0 -0)
(-0 0 -0)
(-0 -0 -0)
(-0 0 -0)
(-0 0 -0)
(-0 -0 0)
(-0 -0 -0)
(-0 -0 -0)
(-0 -0 -0)
(-0 0 -0)
(-0 0 -0)
(-0 0 0)
(-0 -0 0)
(-0 -0 0)
(-0 -0 -0)
(-0 -0 -0)
(-0 0 -0)
(-0 0 -0)
(-0 0 -0)
(-0 0 -0)
(-0 -0 0)
(-0 -0 0)
(-0 -0 -0)
(-0 0 -0)
(-0 0 0)
(-0 -4.155781599e-43 -6.11471406e-42)
(-0 -8.166951374e-39 -5.321962658e-38)
(-0 -3.089282638e-34 -2.062197875e-33)
(-0 -5.979295024e-30 -7.451032743e-29)
(-0 5.922989823e-28 -1.517979459e-26)
(-0 2.31387479e-26 -1.002833742e-25)
(-0 1.004095049e-17 -1.499695318e-17)
(-0 1.383481148e-10 -0.0001030975602)
(-0 3.595135515e-12 -1.212655111e-05)
(-0 0 -0)
(-0 0 -0)
(-0 0 -0)
(-0 0 -0)
(-0 0 -0)
(-0 0 -0)
(-0 0 0)
(-0 0 0)
(-0 0 0)
(-0 -0 0)
(-0 -0 0)
(-0 0 0)
(-0 0 0)
(-0 -0 -0)
(-0 0 0)
(-0 -0 -0)
(-0 -0 -0)
(-0 0 0)
(-0 -0 0)
(-0 0 0)
(-0 0 0)
(-0 -0 -0)
(-0 -0 0)
(-0 0 0)
(-0 -0 -0)
(-0 -0 -0)
(-0 0 -0)
(-0 -0 -0)
(-0 -0 -0)
(-0 -0 0)
(-0 -0 0)
(-0 -0 0)
(-0 -0 0)
(-0 -0 -0)
(-0 0 0)
(-0 0 -0)
(-0 0 0)
(-0 -0 0)
(-0 -0 0)
(-0 -0 0)
(-0 -0 0)
(-0 -1.122899571e-41 -1.454809288e-40)
(-0 -1.750678358e-37 -1.008387901e-36)
(-0 -1.196004123e-32 -7.021941643e-32)
(-0 -1.823756046e-28 -1.896099993e-27)
(-0 9.175095609e-27 -3.095543984e-25)
(-0 1.00986633e-25 -4.393226447e-25)
(-0 2.303288318e-17 -3.372811076e-17)
(-0 3.875394288e-10 -0.0003064754609)
(-0 1.036501923e-11 -5.775614539e-05)
(-0 0 -0)
(-0 0 -0)
(-0 0 -0)
(-0 0 -0)
(-0 0 -0)
(-0 0 -0)
(-0 0 -0)
(-0 0 -0)
(-0 0 0)
(-0 -0 -0)
(-0 -0 0)
(-0 0 0)
(-0 0 -0)
(-0 -0 -0)
(-0 0 -0)
(-0 -0 -0)
(-0 0 0)
(-0 0 -0)
(-0 -0 0)
(-0 0 0)
(-0 -0 -0)
(-0 -0 -0)
(-0 0 0)
(-0 -0 -0)
(-0 -0 -0)
(-0 0 -0)
(-0 0 0)
(-0 -0 -0)
(-0 0 0)
(-0 -0 -0)
(-0 -0 0)
(-0 0 -0)
(-0 -0 -0)
(-0 -0 -0)
(-0 0 0)
(-0 0 -0)
(-0 0 -0)
(-0 -0 -0)
(-0 -0 -0)
(-0 0 0)
(-0 -0 -0)
(-0 -3.836971647e-41 -4.404213447e-40)
(-0 -5.432321215e-37 -2.783301647e-36)
(-0 -8.26112838e-33 -4.293334286e-32)
(-0 -2.512488622e-28 -2.203390452e-27)
(-0 2.274953595e-26 -1.284750181e-24)
(-0 2.203869718e-24 -9.786399046e-24)
(-0 4.313130437e-24 -6.266828984e-24)
(-0 1.061427943e-09 -0.000965122026)
(-0 3.009483418e-11 -0.0002911765557)
(-0 7.509557432e-20 -1.232097695e-19)
(-0 0 -0)
(-0 0 -0)
(-0 0 -0)
(-0 0 -0)
(-0 0 -0)
(-0 0 -0)
(-0 0 -0)
(-0 0 -0)
(-0 -0 -0)
(-0 -0 -0)
(-0 -0 -0)
(-0 -0 -0)
(-0 -0 -0)
(-0 0 -0)
(-0 0 -0)
(-0 0 -0)
(-0 0 -0)
(-0 0 -0)
(-0 0 -0)
(-0 -0 -0)
(-0 0 0)
(-0 -0 -0)
(-0 -0 -0)
(-0 -0 -0)
(-0 0 0)
(-0 0 0)
(-0 -0 0)
(-0 -0 0)
(-0 0 -0)
(-0 -0 0)
(-0 -0 -0)
(-0 -0 -0)
(-0 0 -0)
(-0 0 0)
(-0 -0 0)
(-0 0 -0)
(-0 -0 -0)
(-0 -0 -0)
(-0 -0 -0)
(-0 0 -0)
(-0 -1.581755495e-40 -1.606120068e-39)
(-0 -1.94377997e-36 -8.849073135e-36)
(-0 -1.784158417e-32 -8.202007947e-32)
(-0 -4.895896874e-28 -3.634966474e-27)
(-0 9.382559227e-27 -3.024739933e-24)
(-0 9.731952072e-24 -4.470295151e-23)
(-0 1.10151343e-23 -1.599958707e-23)
(-0 2.850413919e-09 -0.003275825063)
(-0 9.022278555e-11 -0.001467820959)
(-0 1.490693937e-18 -2.547715249e-18)
(-0 0 -0)
(-0 0 -0)
(-0 0 -0)
(-0 0 -0)
(-0 0 -0)
(-0 0 -0)
(-0 0 -0)
(-0 0 -0)
(-0 -0 -0)
(-0 0 -0)
(-0 0 0)
(-0 0 0)
(-0 -0 0)
(-0 -0 -0)
(-0 -0 -0)
(-0 0 -0)
(-0 0 -0)
(-0 0 -0)
(-0 0 -0)
(-0 0 0)
(-0 0 -0)
(-0 -0 0)
(-0 -0 0)
(-0 0 0)
(-0 0 0)
(-0 0 -0)
(-0 0 0)
(-0 -0 -0)
(-0 -0 -0)
(-0 -0 -0)
(-0 -0 0)
(-0 0 0)
(-0 0 0)
(-0 0 0)
(-0 -0 0)
(-0 -0 0)
(-0 -0 0)
(-0 -0 -0)
(-0 -0 -0)
(-0 -0 0)
(-0 -9.753834792e-39 -8.737259734e-38)
(-0 -1.103724409e-34 -4.454268691e-34)
(-0 -9.82340366e-31 -3.98678519e-30)
(-0 -3.645368286e-26 -2.294900186e-25)
(-0 -1.769315535e-24 -1.19635596e-22)
(-0 3.458089406e-22 -1.672512402e-21)
(-0 2.708691975e-14 -3.970709113e-14)
(-0 7.503669436e-09 -0.01193033661)
(-0 2.841650468e-10 -0.007124795126)
(-0 0 -0)
(-0 0 -0)
(-0 0 -0)
(-0 0 -0)
(-0 0 -0)
(-0 0 -0)
(-0 0 -0)
(-0 0 -0)
(-0 0 -0)
(-0 -0 0)
(-0 0 0)
(-0 0 -0)
(-0 -0 0)
(-0 -0 0)
(-0 -0 0)
(-0 0 0)
(-0 0 0)
(-0 0 0)
(-0 0 -0)
(-0 0 -0)
(-0 -0 0)
(-0 0 -0)
(-0 0 0)
(-0 0 -0)
(-0 -0 0)
(-0 -0 -0)
(-0 0 -0)
(-0 -0 0)
(-0 -0 -0)
(-0 0 -0)
(-0 0 0)
(-0 0 0)
(-0 0 0)
(-0 -0 -0)
(-0 0 -0)
(-0 0 -0)
(-0 -0 0)
(-0 -0 0)
(-0 -0 -0)
(-0 0 -0)
(-0 -0 0)
(-0 -2.258095408e-36 -1.778748449e-35)
(-0 -1.886461707e-32 -6.730008181e-32)
(-0 -8.518239069e-29 -3.044236758e-28)
(-0 -4.52821615e-25 -2.417856055e-24)
(-0 -1.539533085e-22 -4.185759931e-21)
(-0 1.255311702e-20 -6.559048802e-20)
(-0 8.344125527e-11 -1.250521876e-10)
(-0 1.93314155e-08 -0.04521994964)
(-0 9.457566834e-10 -0.03258904258)
(-0 1.782392856e-12 -2.72333809e-12)
(-0 0 -0)
(-0 0 -0)
(-0 0 -0)
(-0 0 -0)
(-0 0 -0)
(-0 0 -0)
(-0 0 -0)
(-0 0 -0)
(-0 0 0)
(-0 -0 0)
(-0 -0 0)
(-0 0 -0)
(-0 -0 0)
(-0 -0 0)
(-0 -0 -0)
(-0 0 -0)
(-0 0 0)
(-0 0 -0)
(-0 0 0)
(-0 0 -0)
(-0 -0 0)
(-0 -0 -0)
(-0 -0 0)
(-0 -0 -0)
(-0 -0 0)
(-0 0 -0)
(-0 -0 -0)
(-0 -0 0)
(-0 0 0)
(-0 0 0)
(-0 -0 0)
(-0 -0 -0)
(-0 -0 0)
(-0 0 -0)
(-0 0 -0)
(-0 0 -0)
(-0 -0 -0)
(-0 -0 -0)
(-0 0 -0)
(-0 -0 -0)
(-0 -9.400294107e-35 -6.488308859e-34)
(-0 -6.442854068e-31 -2.025371387e-30)
(-0 -5.34891734e-27 -1.678188765e-26)
(-0 -5.589618872e-24 -2.529728411e-23)
(-0 -1.785473234e-23 -2.795228417e-22)
(-0 1.432465618e-19 -8.406294352e-19)
(-0 5.617873685e-10 -8.756537086e-10)
(-0 4.844142943e-08 -0.1714014753)
(-0 3.403563294e-09 -0.1387772494)
(-0 2.285532486e-11 -3.16057863e-11)
(-0 0 -0)
(-0 0 -0)
(-0 0 -0)
(-0 0 -0)
(-0 0 -0)
(-0 0 -0)
(-0 0 -0)
(-0 0 -0)
(-0 0 -0)
(-0 0 0)
(-0 -0 0)
(-0 0 0)
(-0 0 0)
(-0 -0 0)
(-0 -0 0)
(-0 0 0)
(-0 0 0)
(-0 0 0)
(-0 0 0)
(-0 -0 -0)
(-0 0 -0)
(-0 -0 0)
(-0 -0 0)
(-0 -0 0)
(-0 -0 0)
(-0 -0 0)
(-0 0 0)
(-0 -0 0)
(-0 0 0)
(-0 0 0)
(-0 -0 -0)
(-0 -0 -0)
(-0 0 0)
(-0 -0 0)
(-0 0 0)
(-0 0 -0)
(-0 -0 0)
(-0 -0 0)
(-0 -0 -0)
(-0 0 0)
(-0 -1.734751292e-33 -1.044923209e-32)
(-0 -9.738796826e-30 -2.687707661e-29)
(-0 -7.076169115e-26 -1.942106374e-25)
(-0 -5.48848383e-23 -2.102342666e-22)
(-0 -1.850599054e-22 -1.902025059e-21)
(-0 6.931513776e-19 -4.864675777e-18)
(-0 1.288153627e-09 -2.133417125e-09)
(-0 1.170952339e-07 -0.6281414581)
(-0 1.287018326e-08 -0.5462421447)
(-0 9.648692673e-11 -1.192059114e-10)
(-0 0 -0)
(-0 0 -0)
(-0 0 -0)
(-0 0 -0)
(-0 0 -0)
(-0 0 -0)
(-0 0 -0)
(-0 0 -0)
(-0 0 -0)
(-0 0 -0)
(-0 0 -0)
(-0 -0 0)
(-0 -0 -0)
(-0 -0 -0)
(-0 0 0)
(-0 0 0)
(-0 0 -0)
(-0 0 -0)
(-0 0 -0)
(-0 0 0)
(-0 0 -0)
(-0 0 0)
(-0 -0 -0)
(-0 0 -0)
(-0 -0 -0)
(-0 0 0)
(-0 -0 0)
(-0 -0 -0)
(-0 0 0)
(-0 -0 0)
(-0 -0 -0)
(-0 0 -0)
(-0 0 0)
(-0 0 0)
(-0 0 0)
(-0 0 0)
(-0 -0 0)
(-0 -0 -0)
(-0 0 0)
(-0 -0 0)
(-0 -1.358505455e-32 -7.107424843e-32)
(-0 -5.21017058e-29 -1.256846786e-28)
(-0 -1.379444566e-25 -3.298196086e-25)
(-0 -1.175406934e-22 -3.802734973e-22)
(-0 -1.713368623e-21 -1.236963665e-20)
(-0 1.803605902e-18 -1.69873543e-17)
(-0 1.375074284e-09 -2.486153841e-09)
(-0 2.716413819e-07 -2.174916193)
(-0 4.70277086e-08 -1.977876732)
(-0 1.862750058e-10 -2.039753499e-10)
(-0 2.275881657e-16 -1.700884034e-16)
(-0 5.098701711e-17 -2.905615052e-17)
(-0 8.887763842e-18 -4.109855364e-18)
(-0 1.275323762e-18 -4.979845941e-19)
(-0 0 -0)
(-0 0 -0)
(-0 0 -0)
(-0 0 -0)
(-0 0 -0)
(-0 0 -0)
(-0 0 -0)
(-0 -0 -0)
(-0 -0 -0)
(-0 0 -0)
(-0 0 -0)
(-0 -0 -0)
(-0 0 -0)
(-0 -0 -0)
(-0 0 -0)
(-0 0 -0)
(-0 0 0)
(-0 -0 -0)
(-0 -0 -0)
(-0 0 -0)
(-0 -0 0)
(-0 0 -0)
(-0 -0 -0)
(-0 -0 0)
(-0 0 -0)
(-0 -0 -0)
(-0 -0 0)
(-0 0 -0)
(-0 0 0)
(-0 0 -0)
(-0 -0 -0)
(-0 -0 -0)
(-0 -0 -0)
(-0 -0 0)
(-0 0 0)
(-0 -0 -0)
(-0 -2.028413095e-31 -9.164611804e-31)
(-0 -9.961712022e-28 -2.089332218e-27)
(-0 -3.63662228e-24 -7.537838988e-24)
(-0 -5.818994455e-21 -1.585909654e-20)
(-0 -1.115656383e-18 -5.893548155e-18)
(-0 3.599559843e-17 -6.018338769e-16)
(-0 4.618476494e-14 -9.443199871e-14)
(-0 6.010263694e-07 -7.013059161)
(-0 1.59863187e-07 -6.56469894)
(-0 3.157754228e-15 -3.048518627e-15)
(-0 1.117909641e-15 -7.44985662e-16)
(-0 2.391126742e-16 -1.22151276e-16)
(-0 3.091336019e-17 -1.285244333e-17)
(-0 6.21956309e-18 -2.187626896e-18)
(-0 7.566615016e-19 -2.313509709e-19)
(-0 0 -0)
(-0 0 -0)
(-0 0 -0)
(-0 0 -0)
(-0 0 -0)
(-0 0 -0)
(-0 -0 -0)
(-0 -0 0)
(-0 0 -0)
(-0 0 0)
(-0 0 0)
(-0 0 0)
(-0 0 0)
(-0 0 0)
(-0 0 -0)
(-0 0 -0)
(-0 -0 0)
(-0 0 0)
(-0 0 0)
(-0 -0 0)
(-0 -0 -0)
(-0 0 -0)
(-0 0 0)
(-0 0 0)
(-0 -0 -0)
(-0 -0 0)
(-0 0 -0)
(-0 0 -0)
(-0 -0 -0)
(-0 0 -0)
(-0 -0 0)
(-0 -0 0)
(-0 0 0)
(-0 0 0)
(-0 -0 -0)
(-0 -2.703461833e-29 -1.04711664e-28)
(-0 -1.372719501e-25 -2.486352024e-25)
(-0 -1.130250392e-21 -2.01900365e-21)
(-0 -5.968863111e-19 -1.366106243e-18)
(-0 -1.011462782e-17 -4.016888331e-17)
(-0 1.25663698e-19 -9.456898785e-17)
(-0 4.060209968e-11 -9.861129217e-11)
(-0 1.245943703e-06 -20.87347582)
(-0 5.123471839e-07 -19.91376756)
(-0 2.307166136e-14 -1.955078424e-14)
(-0 1.083743711e-14 -6.413390559e-15)
(-0 1.972271049e-15 -8.994915056e-16)
(-0 3.314929196e-16 -1.234030531e-16)
(-0 2.327362874e-17 -7.343212388e-18)
(-0 2.38671162e-18 -6.554231742e-19)
(-0 2.531905673e-19 -6.172002272e-20)
(-0 0 -0)
(-0 0 -0)
(-0 0 -0)
(-0 0 -0)
(-0 0 -0)
(-0 0 0)
(-0 -0 0)
(-0 0 0)
(-0 0 0)
(-0 -0 0)
(-0 0 0)
(-0 0 0)
(-0 0 0)
(-0 0 -0)
(-0 0 -0)
(-0 -0 0)
(-0 -0 -0)
(-0 0 0)
(-0 -0 0)
(-0 0 0)
(-0 0 0)
(-0 -0 0)
(-0 0 -0)
(-0 -0 -0)
(-0 -0 -0)
(-0 -0 0)
(-0 0 -0)
(-0 0 0)
(-0 0 0)
(-0 0 0)
(-0 -0 0)
(-0 -0 -0)
(-0 -0 -0)
(-0 -0 0)
(-0 -3.912591088e-28 -1.286409297e-27)
(-0 -2.486999634e-24 -3.855213316e-24)
(-0 -1.518879473e-20 -2.320869468e-20)
(-0 -3.965101137e-18 -7.591595949e-18)
(-0 -4.649859857e-17 -1.414740129e-16)
(-0 -1.95331037e-16 -2.706860982e-15)
(-0 1.104910154e-11 -3.444245802e-11)
(-0 2.361030103e-06 -57.01871385)
(-0 1.549513802e-06 -55.06299703)
(-0 2.011520327e-13 -1.489732675e-13)
(-0 5.277451188e-14 -2.760691667e-14)
(-0 1.097918031e-14 -4.449266312e-15)
(-0 2.000493943e-15 -6.636107223e-16)
(-0 1.828420572e-16 -5.149784676e-17)
(-0 1.274977766e-17 -3.129217092e-18)
(-0 7.308729233e-19 -1.593713651e-19)
(-0 4.879147388e-20 -9.595225155e-21)
(-0 0 -0)
(-0 0 -0)
(-0 0 -0)
(-0 0 -0)
(-0 0 0)
(-0 0 0)
(-0 0 0)
(-0 -0 0)
(-0 -0 0)
(-0 0 0)
(-0 0 -0)
(-0 -0 0)
(-0 -0 -0)
(-0 0 -0)
(-0 -0 0)
(-0 0 -0)
(-0 0 -0)
(-0 -0 -0)
(-0 -0 0)
(-0 -0 0)
(-0 -0 -0)
(-0 -0 -0)
(-0 0 -0)
(-0 0 -0)
(-0 -0 0)
(-0 -0 -0)
(-0 0 0)
(-0 0 -0)
(-0 0 -0)
(-0 -0 -0)
(-0 -0 -0)
(-0 0 -0)
(-0 -0 0)
(-0 -1.858420532e-27 -5.115966593e-27)
(-0 -6.17680447e-24 -8.091673594e-24)
(-0 -2.036081744e-20 -2.634352309e-20)
(-0 -2.202506845e-17 -3.508665447e-17)
(-0 -1.763309112e-15 -4.165038656e-15)
(-0 -2.847773531e-14 -1.7287111e-13)
(-0 2.951671472e-10 -1.365704745e-09)
(-0 4.062593727e-06 -142.3335615)
(-0 4.329770566e-06 -138.4207371)
(-0 9.277468179e-13 -5.976267282e-13)
(-0 7.422474218e-14 -3.413822744e-14)
(-0 2.349543451e-14 -8.412973579e-15)
(-0 4.944202645e-15 -1.453101721e-15)
(-0 7.477666957e-16 -1.86908598e-16)
(-0 6.470893391e-17 -1.411038719e-17)
(-0 3.657074976e-18 -7.090888411e-19)
(-0 1.549469275e-19 -2.71123448e-20)
(-0 0 -0)
(-0 0 -0)
(-0 0 -0)
(-0 0 -0)
(-0 0 -0)
(-0 -0 -0)
(-0 0 -0)
(-0 0 -0)
(-0 -0 0)
(-0 -0 -0)
(-0 0 -0)
(-0 0 0)
(-0 -0 -0)
(-0 0 0)
(-0 -0 -0)
(-0 -0 0)
(-0 0 -0)
(-0 -0 -0)
(-0 0 -0)
(-0 0 -0)
(-0 -0 0)
(-0 -0 0)
(-0 -0 -0)
(-0 0 -0)
(-0 -0 -0)
(-0 -0 0)
(-0 0 0)
(-0 0 -0)
(-0 0 -0)
(-0 -0 -0)
(-0 -0 -0)
(-0 0 -0)
(-0 -0 -0)
(-0 -1.457145612e-25 -3.286047461e-25)
(-0 -3.789346979e-22 -4.097619754e-22)
(-0 -9.646415855e-19 -1.035472119e-18)
(-0 -1.340965206e-15 -1.759298887e-15)
(-0 -1.146519882e-13 -2.12183754e-13)
(-0 -2.323394187e-13 -8.256538575e-13)
(-0 1.421951778e-08 -1.451916666e-07)
(-0 8.821178502e-06 -323.2965074)
(-0 1.112867098e-05 -315.4808986)
(-0 3.524510919e-12 -1.963282307e-12)
(-0 3.906001265e-13 -1.569129792e-13)
(-0 6.319197521e-14 -1.985521121e-14)
(-0 3.308211978e-15 -8.553452345e-16)
(-0 1.478638248e-15 -3.256514013e-16)
(-0 2.196207945e-16 -4.224101989e-17)
(-0 1.341332658e-17 -2.295733133e-18)
(-0 2.332531219e-19 -3.604820767e-20)
(-0 1.774111326e-20 -2.504836575e-21)
(-0 0 -0)
(-0 0 -0)
(-0 0 -0)
(-0 0 -0)
(-0 -0 -0)
(-0 0 0)
(-0 0 -0)
(-0 0 -0)
(-0 0 -0)
(-0 0 -0)
(-0 -0 -0)
(-0 -0 -0)
(-0 0 0)
(-0 -0 -0)
(-0 -0 -0)
(-0 0 -0)
(-0 -0 -0)
(-0 -0 -0)
(-0 0 -0)
(-0 0 0)
(-0 -0 0)
(-0 -0 0)
(-0 0 0)
(-0 0 -0)
(-0 -0 0)
(-0 0 -0)
(-0 0 -0)
(-0 0 -0)
(-0 -0 -0)
(-0 -0 -0)
(-0 0 0)
(-0 -0 0)
(-0 -1.005256209e-23 -1.819039591e-23)
(-0 -3.505179597e-20 -3.029946371e-20)
(-0 -1.053571634e-16 -8.976513231e-17)
(-0 -2.131749407e-14 -2.199397128e-14)
(-0 -2.903399561e-13 -4.127642789e-13)
(-0 -2.029916563e-11 -4.752625624e-11)
(-0 -2.023037525e-07 -5.680711043e-06)
(-0 2.467191429e-05 -664.6806618)
(-0 2.621384819e-05 -649.8305434)
(-0 7.692298346e-12 -3.677610124e-12)
(-0 1.434688989e-12 -4.99209344e-13)
(-0 2.99835647e-13 -8.195002276e-14)
(-0 3.582857959e-14 -8.076968585e-15)
(-0 3.616024772e-15 -6.953765714e-16)
(-0 3.42305601e-16 -5.754329937e-17)
(-0 2.750298821e-17 -4.117082576e-18)
(-0 9.580958958e-19 -1.295756075e-19)
(-0 3.939662403e-20 -4.869723223e-21)
(-0 0 -0)
(-0 0 -0)
(-0 0 -0)
(-0 0 -0)
(-0 0 0)
(-0 -0 0)
(-0 -0 0)
(-0 -0 -0)
(-0 0 -0)
(-0 0 -0)
(-0 0 -0)
(-0 0 0)
(-0 0 0)
(-0 -0 0)
(-0 -0 -0)
(-0 0 0)
(-0 -0 -0)
(-0 0 0)
(-0 0 -0)
(-0 0 -0)
(-0 -0 -0)
(-0 -0 -0)
(-0 -0 0)
(-0 -0 -0)
(-0 0 0)
(-0 0 0)
(-0 0 -0)
(-0 -0 -0)
(-0 -0 -0)
(-0 0 -0)
(-0 0 -0)
(-0 -0 -0)
(-0 -1.085504251e-22 -1.562611975e-22)
(-0 -6.06420123e-19 -4.097775625e-19)
(-0 -1.754239279e-15 -1.142840974e-15)
(-0 -3.003509739e-13 -2.300465164e-13)
(-0 -1.96142356e-12 -1.987235451e-12)
(-0 -2.433369891e-10 -3.786532841e-10)
(-0 -4.714122721e-06 -2.717696551e-05)
(-0 2.832638646e-05 -1228.911222)
(-0 5.262992845e-05 -1205.089567)
(-0 2.5413627e-11 -1.032436401e-11)
(-0 6.413160767e-13 -1.911811348e-13)
(-0 2.988744549e-13 -7.025590723e-14)
(-0 6.827159702e-14 -1.326513448e-14)
(-0 6.273664583e-15 -1.041196049e-15)
(-0 6.594588731e-16 -9.57578232e-17)
(-0 3.713939182e-17 -4.805368183e-18)
(-0 1.342434431e-18 -1.570002874e-19)
(-0 1.203670487e-19 -1.287105614e-20)
(-0 0 -0)
(-0 0 -0)
(-0 0 -0)
(-0 0 -0)
(-0 0 -0)
(-0 -0 -0)
(-0 -0 -0)
(-0 -0 0)
(-0 0 0)
(-0 0 0)
(-0 0 -0)
(-0 0 0)
(-0 0 0)
(-0 -0 0)
(-0 -0 0)
(-0 0 0)
(-0 -0 -0)
(-0 0 0)
(-0 -0 0)
(-0 0 0)
(-0 -0 -0)
(-0 -0 -0)
(-0 0 -0)
(-0 0 -0)
(-0 0 0)
(-0 -0 0)
(-0 -0 0)
(-0 -0 -0)
(-0 0 0)
(-0 -0 0)
(-0 0 -0)
(-0 -0 0)
(-0 -1.984797079e-24 -2.296880785e-24)
(-0 -1.740063023e-19 -9.148609516e-20)
(-0 -9.776799954e-16 -4.783870338e-16)
(-0 -1.714791506e-13 -9.450126865e-14)
(-0 -2.438438963e-12 -1.678984245e-12)
(-0 -6.072145932e-10 -6.034148371e-10)
(-0 -1.591683148e-05 -4.170647347e-05)
(-0 -3.996631499e-05 -2028.367689)
(-0 6.594915395e-05 -2002.219975)
(-0 4.636605407e-06 -1.585198038e-06)
(-0 2.850921769e-12 -7.174829247e-13)
(-0 3.722776064e-13 -7.413174713e-14)
(-0 5.340917406e-14 -8.807532096e-15)
(-0 5.573694334e-15 -7.860121772e-16)
(-0 1.308245452e-16 -1.615445779e-17)
(-0 1.030921121e-16 -1.134958832e-17)
(-0 7.993351067e-18 -7.957683754e-19)
(-0 4.795862608e-19 -4.366898769e-20)
(-0 2.462169582e-20 -2.069797738e-21)
(-0 0 -0)
(-0 0 -0)
(-0 0 -0)
(-0 0 -0)
(-0 -0 -0)
(-0 -0 -0)
(-0 0 0)
(-0 0 0)
(-0 0 0)
(-0 0 0)
(-0 0 -0)
(-0 0 0)
(-0 -0 -0)
(-0 -0 0)
(-0 0 0)
(-0 -0 0)
(-0 0 -0)
(-0 0 0)
(-0 -0 -0)
(-0 -0 -0)
(-0 0 0)
(-0 -0 -0)
(-0 0 0)
(-0 0 -0)
(-0 0 -0)
(-0 -0 0)
(-0 -0 0)
(-0 -0 0)
(-0 -0 0)
(-0 0 -0)
(-0 -0 0)
(-0 -7.168553231e-28 -6.900596237e-28)
(-0 -7.971974781e-24 -3.381505569e-24)
(-0 -4.433219477e-19 -1.682546921e-19)
(-0 -2.435073683e-15 -9.936056874e-16)
(-0 -3.766065607e-13 -1.785243872e-13)
(-0 -2.792619712e-10 -1.726748565e-10)
(-0 -2.092892722e-05 -2.554418978e-05)
(-0 -0.000128434805 -2964.745201)
(-0 0.0001198247097 -2960.563175)
(-0 5.274612518e-05 -1.651485445e-05)
(-0 3.337384428e-12 -6.946455264e-13)
(-0 6.720973346e-13 -1.110162612e-13)
(-0 7.648195985e-14 -1.047923561e-14)
(-0 1.170953693e-14 -1.373410571e-15)
(-0 2.296855688e-15 -2.360527284e-16)
(-0 3.291305583e-16 -3.017236904e-17)
(-0 2.938668972e-17 -2.437015547e-18)
(-0 2.764288752e-18 -2.097346797e-19)
(-0 9.342571513e-20 -6.545819975e-21)
(-0 2.2454848e-21 -1.463968514e-22)
(-0 0 -0)
(-0 0 -0)
(-0 0 0)
(-0 -0 0)
(-0 -0 -0)
(-0 0 0)
(-0 0 0)
(-0 0 0)
(-0 0 0)
(-0 0 -0)
(-0 0 -0)
(-0 -0 -0)
(-0 -0 0)
(-0 0 0)
(-0 -0 0)
(-0 -0 0)
(-0 0 -0)
(-0 -0 -0)
(-0 -0 0)
(-0 0 -0)
(-0 0 0)
(-0 0 0)
(-0 -0 0)
(-0 0 -0)
(-0 0 -0)
(-0 -0 -0)
(-0 -0 -0)
(-0 -0 0)
(-0 0 -0)
(-0 -0 -0)
(-0 -2.008274063e-34 -1.603964001e-34)
(-0 -1.369238636e-28 -4.787850456e-29)
(-0 -6.575485888e-24 -2.03705706e-24)
(-0 -3.434723461e-20 -1.129792921e-20)
(-0 -2.136926314e-15 -7.897821841e-16)
(-0 -8.471422177e-15 -3.626827352e-15)
(-0 -1.715230761e-05 -1.107377342e-05)
(-0 -0.0001819430232 -3797.60365)
(-0 0.000319278087 -3856.620583)
(-0 0.0001051880414 -2.759042643e-05)
(-0 2.216924136e-12 -3.70329078e-13)
(-0 5.319355649e-13 -7.069172303e-14)
(-0 1.689857222e-13 -1.8654228e-14)
(-0 1.073931574e-14 -1.015704154e-15)
(-0 3.963218125e-15 -3.286281729e-16)
(-0 4.170216204e-16 -3.085762818e-17)
(-0 7.636271693e-17 -5.113164776e-18)
(-0 3.828422971e-18 -2.345943073e-19)
(-0 3.572188515e-19 -2.021788222e-20)
(-0 1.050965271e-20 -5.536328462e-22)
(-0 7.408024882e-23 -3.653755996e-24)
(-0 0 -0)
(-0 0 -0)
(-0 -0 0)
(-0 -0 0)
(-0 0 0)
(-0 0 0)
(-0 0 -0)
(-0 -0 0)
(-0 0 -0)
(-0 0 -0)
(-0 -0 -0)
(-0 -0 0)
(-0 0 -0)
(-0 0 -0)
(-0 -0 0)
(-0 -0 0)
(-0 -0 0)
(-0 -0 0)
(-0 0 -0)
(-0 0 -0)
(-0 -0 0)
(-0 -0 -0)
(-0 -0 -0)
(-0 0 0)
(-0 0 -0)
(-0 -0 -0)
(-0 -0 -0)
(-0 -0 -0)
(-0 -0 -0)
(-0 -2.543794013e-34 -1.609514147e-34)
(-0 -4.473390279e-31 -1.241337059e-31)
(-0 -1.810758632e-26 -4.502447558e-27)
(-0 -1.089667945e-22 -2.912321512e-23)
(-0 -1.136104065e-19 -3.4336131e-20)
(-0 -6.336224873e-17 -2.160867706e-17)
(-0 -1.342669344e-05 -5.503822135e-06)
(-0 -0.000269155989 -4198.518866)
(-0 0.0005281810829 -4350.455011)
(-0 0.000117814972 -2.2218683e-05)
(-0 7.943792863e-12 -1.016149739e-12)
(-0 8.709827231e-13 -8.881159495e-14)
(-0 1.656141899e-13 -1.404298004e-14)
(-0 3.186769234e-14 -2.316740692e-15)
(-0 6.418325581e-15 -4.0927823e-16)
(-0 1.462366599e-15 -8.324294447e-17)
(-0 7.645888125e-18 -3.9394501e-19)
(-0 1.057982932e-17 -4.98959078e-19)
(-0 3.498107904e-19 -1.524045383e-20)
(-0 8.520226311e-21 -3.455704398e-22)
(-0 3.171294125e-22 -1.203559681e-23)
(-0 0 -0)
(-0 0 -0)
(-0 0 0)
(-0 -0 0)
(-0 0 0)
(-0 0 0)
(-0 0 -0)
(-0 0 0)
(-0 -0 0)
(-0 0 -0)
(-0 -0 -0)
(-0 -0 -0)
(-0 0 -0)
(-0 -0 -0)
(-0 0 -0)
(-0 0 -0)
(-0 -0 -0)
(-0 -0 -0)
(-0 -0 0)
(-0 0 -0)
(-0 -0 -0)
(-0 -0 -0)
(-0 0 -0)
(-0 0 -0)
(-0 -0 -0)
(-0 -0 -0)
(-0 -0 0)
(-0 0 0)
(-0 -0 0)
(-0 -4.901515985e-37 -2.254220284e-37)
(-0 -1.42717308e-33 -2.89379329e-34)
(-0 -4.021795181e-29 -7.391083674e-30)
(-0 -3.744461172e-25 -7.484999421e-26)
(-0 -5.577528399e-22 -1.273719427e-22)
(-0 -4.35892106e-19 -1.128382957e-19)
(-0 -9.429235765e-06 -2.695948338e-06)
(-0 -0.0003780330939 -3903.268692)
(-0 0.0006544566861 -4107.276849)
(-0 9.517560568e-05 -1.191900173e-05)
(-0 2.141564327e-12 -1.934050592e-13)
(-0 2.812776053e-12 -2.027796616e-13)
(-0 3.087186482e-13 -1.852284979e-14)
(-0 4.766489421e-14 -2.453188804e-15)
(-0 9.010246768e-15 -4.069023165e-16)
(-0 1.526055403e-15 -6.153575007e-17)
(-0 1.165987826e-16 -4.256487398e-18)
(-0 5.218036559e-18 -1.743853286e-19)
(-0 3.484671434e-19 -1.0759674e-20)
(-0 2.688006352e-20 -7.727555531e-22)
(-0 4.140733162e-22 -1.114291779e-23)
(-0 0 -0)
(-0 0 0)
(-0 0 0)
(-0 -0 0)
(-0 -0 0)
(-0 -0 0)
(-0 0 -0)
(-0 0 -0)
(-0 -0 -0)
(-0 -0 -0)
(-0 -0 -0)
(-0 -0 -0)
(-0 0 -0)
(-0 0 0)
(-0 0 0)
(-0 -0 -0)
(-0 -0 -0)
(-0 0 -0)
(-0 -0 0)
(-0 -0 0)
(-0 0 0)
(-0 -0 0)
(-0 -0 -0)
(-0 -0 -0)
(-0 0 -0)
(-0 0 -0)
(-0 0 0)
(-0 0 0)
(-0 -0 0)
(-0 -5.123201574e-40 -1.433077098e-40)
(-0 -2.002845293e-36 -2.486047558e-37)
(-0 -5.982473278e-32 -6.799305285e-33)
(-0 -8.432691286e-28 -1.052528056e-28)
(-0 -1.731506612e-24 -2.487823514e-25)
(-0 -1.900187759e-21 -3.131764386e-22)
(-0 -6.147122172e-06 -1.102732003e-06)
(-0 -0.0004700606045 -2807.600701)
(-0 0.0007457212844 -2969.413507)
(-0 7.079873961e-05 -5.140950249e-06)
(-0 2.312406388e-12 -1.243391114e-13)
(-0 9.395144927e-13 -4.036404164e-14)
(-0 4.382827586e-13 -1.567931062e-14)
(-0 2.633449228e-14 -8.084018997e-16)
(-0 3.31267136e-15 -8.924812651e-17)
(-0 1.099686704e-15 -2.645844203e-17)
(-0 1.466021105e-16 -3.193670011e-18)
(-0 8.104963088e-18 -1.616550263e-19)
(-0 5.192559727e-19 -9.569441263e-21)
(-0 1.235995415e-20 -2.121150675e-22)
(-0 4.947932978e-22 -7.951071286e-24)
(-0 0 -0)
(-0 0 0)
(-0 0 0)
(-0 -0 -0)
(-0 -0 -0)
(-0 -0 -0)
(-0 -0 0)
(-0 0 -0)
(-0 -0 -0)
(-0 -0 -0)
(-0 -0 0)
(-0 0 0)
(-0 0 0)
(-0 0 0)
(-0 0 -0)
(-0 -0 -0)
(-0 -0 0)
(-0 -0 -0)
(-0 0 0)
(-0 0 0)
(-0 -0 0)
(-0 -0 -0)
(-0 -0 0)
(-0 0 -0)
(-0 0 -0)
(-0 0 -0)
(-0 0 -0)
(-0 -0 -0)
(-0 -0 -0)
(-0 -2.340287924e-43 -2.198596009e-44)
(-0 -1.840856849e-39 -7.710840985e-41)
(-0 -4.311690269e-35 -1.664334422e-36)
(-0 -1.082390522e-30 -4.614426881e-32)
(-0 -3.496485036e-25 -1.722299703e-26)
(-0 -1.441454119e-15 -8.207213156e-17)
(-0 -4.013137157e-06 -2.528646859e-07)
(-0 -0.0005192218351 -1028.294126)
(-0 0.0007902703264 -1086.803529)
(-0 3.212489792e-05 -7.628445644e-07)
(-0 2.719515962e-12 -4.855762083e-14)
(-0 3.145611487e-13 -4.489609848e-15)
(-0 1.19735867e-13 -1.423369915e-15)
(-0 3.753502476e-14 -3.829381457e-16)
(-0 1.872661256e-15 -1.676936085e-17)
(-0 1.276263342e-16 -1.020719617e-18)
(-0 8.224416016e-17 -5.95596637e-19)
(-0 5.903867853e-18 -3.91464775e-20)
(-0 1.895285287e-19 -1.161257002e-21)
(-0 8.109023573e-21 -4.626879929e-23)
(-0 1.375781748e-22 -7.379102209e-25)
(-1.373957263e-42 8.645533775e-24 -3.564145969e-26)
(-0 0 0)
(-0 0 -0)
(-0 -0 -0)
(-0 0 0)
(-0 0 -0)
(-0 0 0)
(-0 -0 -0)
(-0 -0 -0)
(-0 0 0)
(-0 -0 0)
(-0 -0 0)
(-0 0 0)
(-0 -0 0)
(-0 -0 -0)
(-0 -0 -0)
(-0 -0 -0)
(-0 0 0)
(-0 -0 0)
(-0 -0 -0)
(-0 -0 -0)
(-0 0 -0)
(-0 0 0)
(-0 -0 0)
(-0 -0 -0)
(-0 0 -0)
(-0 0 -0)
(-0 0 -0)
(-0 -0 -0)
(-0 -5.843959456e-44 5.490162099e-45)
(-0 -1.217271141e-36 5.098826308e-38)
(-0 -3.867180026e-31 1.492751258e-32)
(-0 -1.968035708e-25 8.390069131e-27)
(-0 -7.883374291e-16 3.883175478e-17)
(-0 -8.185472679e-14 4.660539474e-15)
(-0 -6.809107927e-06 4.291229163e-07)
(-0 -0.0005206347602 1028.294429)
(-0 0.0008061066831 1086.804151)
(-0 6.573117473e-05 1.576031067e-06)
(-0 5.08175016e-12 9.073591968e-14)
(-0 2.500752505e-13 3.569228495e-15)
(-0 2.394717325e-13 2.846740443e-15)
(-0 8.591253442e-14 8.764931628e-16)
(-0 2.565735335e-15 2.297572393e-17)
(-0 1.914395007e-16 1.53107954e-18)
(-0 5.287124571e-17 3.828835368e-19)
(-0 6.413501197e-18 4.252570056e-20)
(-0 1.197340021e-19 7.335981236e-22)
(-0 5.406029556e-21 3.085624618e-23)
(-0 0 0)
(1.599290473e-57 1.006284619e-38 4.916950343e-41)
(-0 0 -0)
(-0 -0 -0)
(-0 -0 -0)
(-0 0 -0)
(-0 0 -0)
(-0 0 -0)
(-0 -0 -0)
(-0 -0 0)
(-0 0 -0)
(-0 -0 -0)
(-0 -0 -0)
(-0 0 -0)
(-0 -0 -0)
(-0 -0 -0)
(-0 -0 -0)
(-0 -0 0)
(-0 0 -0)
(-0 -0 -0)
(-0 -0 -0)
(-0 -0 0)
(-0 0 0)
(-0 0 -0)
(-0 -0 -0)
(-0 -0 0)
(-0 0 0)
(-0 0 0)
(-0 0 0)
(-0 -0 0)
(-0 -4.346271184e-40 1.215754425e-40)
(-0 -1.110017316e-32 1.377820418e-33)
(-0 -3.207964582e-26 3.645976929e-27)
(-0 -2.364119981e-19 2.950782586e-20)
(-0 -4.116035186e-14 5.913905156e-15)
(-0 -1.98905595e-13 3.278228578e-14)
(-0 -1.380195139e-05 2.478932077e-06)
(-0 -0.0004745213667 2807.600734)
(-0 0.0007827558327 2969.413874)
(-0 0.0001743825596 1.356661318e-05)
(-0 3.270236374e-12 1.758420686e-13)
(-0 2.598069047e-12 1.11619965e-13)
(-0 7.00117993e-13 2.504631519e-14)
(-0 6.262501865e-14 1.9224288e-15)
(-0 7.472431469e-15 2.013180486e-16)
(-0 6.821882809e-16 1.641343814e-17)
(-0 1.058633437e-16 2.306191887e-18)
(-0 7.966621515e-18 1.588958387e-19)
(-0 6.124383653e-19 1.128692748e-20)
(-0 6.991845918e-21 1.199904021e-22)
(-0 3.298691185e-22 5.300714191e-24)
(-0 0 0)
(-0 0 -0)
(-0 -0 -0)
(-0 -0 -0)
(-0 0 -0)
(-0 0 0)
(-0 0 -0)
(-0 -0 -0)
(-0 -0 0)
(-0 -0 0)
(-0 -0 -0)
(-0 -0 -0)
(-0 0 -0)
(-0 0 -0)
(-0 -0 -0)
(-0 0 -0)
(-0 -0 -0)
(-0 -0 -0)
(-0 -0 -0)
(-0 0 -0)
(-0 0 -0)
(-0 -0 0)
(-0 -0 -0)
(-0 0 -0)
(-0 0 0)
(-0 -0 -0)
(-0 -0 -0)
(-0 -0 -0)
(-0 -0 0)
(-0 -8.173362282e-35 3.758959007e-35)
(-0 -1.12304242e-26 2.277131004e-27)
(-0 -4.553878984e-21 8.368944066e-22)
(-0 -3.258277408e-16 6.513155158e-17)
(-0 -1.053981767e-13 2.406943379e-14)
(-0 -1.905714684e-14 4.933284018e-15)
(-0 -2.100927591e-05 6.030575459e-06)
(-0 -0.0003854236618 3903.267835)
(-0 0.0006335946821 4107.276499)
(-0 0.0001984155996 2.76655617e-05)
(-0 4.063332457e-12 3.669602829e-13)
(-0 2.27836346e-12 1.642525967e-13)
(-0 5.155196011e-13 3.093072667e-14)
(-0 6.934854292e-14 3.569190109e-15)
(-0 9.109263302e-15 4.113738985e-16)
(-0 1.215604192e-15 4.901730061e-17)
(-0 1.414970082e-16 5.165407594e-18)
(-0 2.933549242e-18 9.803839824e-20)
(-0 4.092539293e-19 1.263644947e-20)
(-0 2.719624218e-20 7.818471077e-22)
(-0 4.140681262e-22 1.114291779e-23)
(-0 0 0)
(-0 0 -0)
(-0 -0 -0)
(-0 -0 0)
(-0 0 -0)
(-0 0 0)
(-0 -0 0)
(-0 -0 0)
(-0 0 0)
(-0 -0 0)
(-0 -0 0)
(-0 0 0)
(-0 0 0)
(-0 -0 -0)
(-0 -0 0)
(-0 -0 0)
(-0 -0 -0)
(-0 0 0)
(-0 0 -0)
(-0 -0 0)
(-0 0 -0)
(-0 0 -0)
(-0 -0 -0)
(-0 -0 0)
(-0 -0 0)
(-0 -0 -0)
(-0 -0 -0)
(-0 0 -0)
(-0 -0 -0)
(-0 -1.36319464e-28 8.625249843e-29)
(-0 -3.881926499e-23 1.077212431e-23)
(-0 -2.136677357e-18 5.31285949e-19)
(-0 -2.144292254e-14 5.731001228e-15)
(-0 -4.808587836e-13 1.453289807e-13)
(-0 -3.28692654e-14 1.120957135e-14)
(-0 -2.59600821e-05 1.074360936e-05)
(-0 -0.0002818061375 4198.516828)
(-0 0.0004090210392 4350.454129)
(-0 0.0001476232166 2.918371205e-05)
(-0 5.055140847e-12 6.466406845e-13)
(-0 9.056047019e-13 9.234189327e-14)
(-0 1.94877687e-13 1.6524329e-14)
(-0 4.894041903e-14 3.557906098e-15)
(-0 6.418325531e-15 4.092782175e-16)
(-0 1.45719172e-15 8.294837162e-17)
(-0 2.079906423e-17 1.071646371e-18)
(-0 1.03636908e-17 4.887657729e-19)
(-0 3.498107904e-19 1.524039912e-20)
(-0 8.067532154e-21 3.271994404e-22)
(-0 3.171397924e-22 1.20459768e-23)
(-0 0 0)
(-0 0 0)
(-0 0 -0)
(-0 -0 0)
(-0 0 0)
(-0 0 -0)
(-0 0 -0)
(-0 0 0)
(-0 -0 0)
(-0 0 -0)
(-0 -0 0)
(-0 -0 0)
(-0 0 -0)
(-0 -0 0)
(-0 0 -0)
(-0 0 0)
(-0 -0 0)
(-0 -0 -0)
(-0 -0 -0)
(-0 0 -0)
(-0 -0 0)
(-0 -0 0)
(-0 0 0)
(-0 0 0)
(-0 -0 -0)
(-0 -0 -0)
(-0 -0 -0)
(-0 0 0)
(-0 -0 -0)
(-0 -4.575481064e-25 3.654343099e-25)
(-0 -1.30169844e-20 4.551692146e-21)
(-0 -2.206484295e-16 6.835613199e-17)
(-0 -2.270535631e-13 7.468558984e-14)
(-0 -1.337953613e-12 4.944931741e-13)
(-0 -4.162971324e-12 1.782276585e-12)
(-0 -2.981209453e-05 1.973303946e-05)
(-0 -0.0001975242352 3797.601401)
(-0 0.0002108491645 3856.620039)
(-0 6.704253387e-05 1.614111296e-05)
(-0 2.043903152e-12 3.414265233e-13)
(-0 6.008428557e-13 7.98491716e-14)
(-0 1.573706847e-13 1.737205056e-14)
(-0 1.440830414e-14 1.362710091e-15)
(-0 2.711258362e-15 2.248162561e-16)
(-0 3.931717559e-16 2.909285045e-17)
(-0 7.636271704e-17 5.113165109e-18)
(-0 3.977604168e-18 2.43735736e-19)
(-0 1.863179589e-19 1.054535505e-20)
(-0 9.135288029e-21 4.812611428e-22)
(-0 2.222563164e-22 1.097683797e-23)
(-0 0 0)
(-0 0 -0)
(-0 0 -0)
(-0 -0 0)
(-0 0 -0)
(-0 0 -0)
(-0 0 -0)
(-0 0 -0)
(-0 -0 0)
(-0 -0 -0)
(-0 -0 -0)
(-0 -0 -0)
(-0 0 0)
(-0 0 0)
(-0 -0 -0)
(-0 -0 -0)
(-0 -0 0)
(-0 -0 -0)
(-0 0 -0)
(-0 0 -0)
(-0 0 -0)
(-0 0 -0)
(-0 -0 0)
(-0 -0 -0)
(-0 -0 -0)
(-0 -0 -0)
(-0 0 0)
(-0 0 -0)
(-0 -0 -0)
(-0 -3.57170554e-23 3.438202791e-23)
(-0 -3.477958274e-19 1.475262544e-19)
(-0 -2.968297631e-15 1.126564572e-15)
(-0 -6.459526392e-13 2.635743872e-13)
(-0 -1.433940385e-12 6.797370762e-13)
(-0 -4.087373286e-10 2.527324146e-10)
(-0 -2.897459857e-05 3.71408039e-05)
(-0 -0.0001058915332 2964.745826)
(-0 0.0001457880775 2960.563465)
(-0 1.180331302e-06 3.304045182e-07)
(-0 3.337384649e-12 6.946455493e-13)
(-0 5.861844059e-13 9.682526125e-14)
(-0 8.096581633e-14 1.109359459e-14)
(-0 1.170953709e-14 1.373410579e-15)
(-0 2.388874338e-15 2.455096784e-16)
(-0 2.306901953e-16 2.11480504e-17)
(-0 2.938668979e-17 2.437015246e-18)
(-0 1.664691491e-18 1.263049385e-19)
(-0 1.019587166e-19 7.143697716e-21)
(-0 3.012641332e-21 1.964266664e-22)
(-0 0 0)
(-0 0 0)
(-0 0 0)
(-0 0 -0)
(-0 0 0)
(-0 -0 -0)
(-0 0 0)
(-0 0 -0)
(-0 0 -0)
(-0 -0 0)
(-0 -0 -0)
(-0 -0 -0)
(-0 -0 -0)
(-0 0 -0)
(-0 -0 -0)
(-0 -0 -0)
(-0 0 0)
(-0 -0 0)
(-0 -0 0)
(-0 -0 -0)
(-0 0 -0)
(-0 0 -0)
(-0 -0 -0)
(-0 0 -0)
(-0 -0 0)
(-0 -0 -0)
(-0 -0 0)
(-0 -0 0)
(-0 0 -0)
(-0 -0 -0)