/*--------------------------------*- C++ -*----------------------------------*\
  =========                 |
  \\      /  F ield         | OpenFOAM: The Open Source CFD Toolbox
   \\    /   O peration     | Website:  https://openfoam.org
    \\  /    A nd           | Version:  6
     \\/     M anipulation  |
\*---------------------------------------------------------------------------*/
FoamFile
{
    version     2.0;
    format      ascii;
    class       volScalarField;
    location    "0.01";
    object      Num_divU;
}
// * * * * * * * * * * * * * * * * * * * * * * * * * * * * * * * * * * * * * //

dimensions      [0 0 -1 0 0 0 0];

internalField   nonuniform List<scalar> 
2500
(
3.552625845e-10
-5.523929615e-08
-2.39841222e-07
-4.087528884e-07
-5.582702817e-07
-6.858100444e-07
-7.888564489e-07
-8.110153874e-07
-4.354704804e-07
-1.152127931e-22
-2.705339093e-17
-6.081170943e-17
-9.252598891e-17
-1.233825015e-16
-1.538470791e-16
-1.839890169e-16
-2.137780603e-16
-2.431644224e-16
-2.720961231e-16
-3.005225075e-16
-3.283951976e-16
-3.556678847e-16
-3.822966837e-16
-4.082403514e-16
-4.33460346e-16
-4.579208466e-16
-4.815888659e-16
-5.044340202e-16
-5.264289664e-16
-5.475489567e-16
-5.677719136e-16
-5.870783944e-16
-6.054513328e-16
-6.228760265e-16
-6.393400856e-16
-6.548330095e-16
-6.693463241e-16
-6.82873243e-16
-6.954085174e-16
-7.069483341e-16
-7.174900355e-16
-7.270320539e-16
-7.355737107e-16
-7.431150849e-16
-7.496568697e-16
-7.552003901e-16
-7.59747534e-16
-7.63300553e-16
-7.658613476e-16
-7.674267896e-16
-1.610380491e-07
-4.311685281e-07
-7.3868414e-07
-9.992309057e-07
-1.219242848e-06
-1.393880256e-06
-1.466219474e-06
-1.080675875e-06
-3.436144752e-07
-5.399398168e-17
-1.131374134e-16
-1.713916207e-16
-2.268423083e-16
-2.812960867e-16
-3.351141548e-16
-3.882832688e-16
-4.40721302e-16
-4.92336923e-16
-5.430403837e-16
-5.927453951e-16
-6.413698745e-16
-6.888362008e-16
-7.350712026e-16
-7.80006477e-16
-8.235784921e-16
-8.657286747e-16
-9.06403552e-16
-9.455544949e-16
-9.831376761e-16
-1.019114116e-15
-1.053449313e-15
-1.086113125e-15
-1.117079682e-15
-1.146326901e-15
-1.173836383e-15
-1.199593107e-15
-1.223585048e-15
-1.245803015e-15
-1.266240202e-15
-1.284892001e-15
-1.301755605e-15
-1.316829935e-15
-1.330115224e-15
-1.341613142e-15
-1.351326869e-15
-1.359261875e-15
-1.365428204e-15
-1.369847386e-15
-1.372576018e-15
-6.058974893e-16
-1.384602161e-07
-3.595496677e-07
-6.243268943e-07
-8.514293971e-07
-1.044935176e-06
-1.199853557e-06
-1.269019067e-06
-9.633067022e-07
-3.230033651e-07
-4.422649691e-17
-9.425297928e-17
-1.445947517e-16
-1.927834839e-16
-2.402325726e-16
-2.871693678e-16
-3.335560865e-16
-3.793149876e-16
-4.243649294e-16
-4.686271408e-16
-5.120261624e-16
-5.544902794e-16
-5.959514953e-16
-6.363456602e-16
-6.756127833e-16
-7.136970981e-16
-7.505472087e-16
-7.86116043e-16
-8.203607864e-16
-8.532429593e-16
-8.847281682e-16
-9.147860587e-16
-9.433900641e-16
-9.705173168e-16
-9.961483128e-16
-1.02026683e-15
-1.042859522e-15
-1.063915703e-15
-1.083427182e-15
-1.101387853e-15
-1.11779352e-15
-1.132641567e-15
-1.145930753e-15
-1.157661016e-15
-1.167833151e-15
-1.176448804e-15
-1.183510133e-15
-1.189018794e-15
-1.192972196e-15
-1.195345334e-15
-5.902908335e-16
-1.372220904e-07
-3.505847338e-07
-6.015617335e-07
-8.155278644e-07
-9.968318076e-07
-1.140890847e-06
-1.202141289e-06
-9.008600487e-07
-2.880868233e-07
-4.353370352e-17
-9.256412507e-17
-1.420837414e-16
-1.895612274e-16
-2.363406612e-16
-2.826235035e-16
-3.283659908e-16
-3.734901089e-16
-4.179154858e-16
-4.615642701e-16
-5.043620874e-16
-5.462383097e-16
-5.871260496e-16
-6.269621189e-16
-6.656873384e-16
-7.032467139e-16
-7.395894597e-16
-7.746691256e-16
-8.084435451e-16
-8.408746388e-16
-8.719286064e-16
-9.015754669e-16
-9.297890423e-16
-9.565467783e-16
-9.818294567e-16
-1.005621058e-15
-1.027908398e-15
-1.048681027e-15
-1.067930815e-15
-1.085651637e-15
-1.101839345e-15
-1.116491241e-15
-1.129605948e-15
-1.141183013e-15
-1.151222824e-15
-1.159726103e-15
-1.166693282e-15
-1.172123625e-15
-1.176012744e-15
-1.178349385e-15
-5.889231457e-16
-1.340658492e-07
-3.369003108e-07
-5.641178144e-07
-7.536912137e-07
-9.110675877e-07
-1.032043462e-06
-1.074171793e-06
-7.773236633e-07
-2.191948638e-07
-4.350388741e-17
-9.245258343e-17
-1.419069277e-16
-1.893317012e-16
-2.360632515e-16
-2.822992907e-16
-3.27995166e-16
-3.730729397e-16
-4.174520928e-16
-4.610547738e-16
-5.038065961e-16
-5.456372436e-16
-5.864799811e-16
-6.262718704e-16
-6.64953881e-16
-7.024710729e-16
-7.387727235e-16
-7.738124265e-16
-8.075480279e-16
-8.399416103e-16
-8.70959305e-16
-9.005712332e-16
-9.287513375e-16
-9.554770603e-16
-9.807292388e-16
-1.004491935e-15
-1.026751977e-15
-1.047498914e-15
-1.066724597e-15
-1.084422975e-15
-1.100589733e-15
-1.115222117e-15
-1.128318564e-15
-1.139878444e-15
-1.149901693e-15
-1.158388514e-15
-1.165338807e-15
-1.170751411e-15
-1.174623493e-15
-1.176950376e-15
-5.889049261e-16
-1.244289811e-07
-3.039452916e-07
-4.876884103e-07
-6.333958185e-07
-7.485161169e-07
-8.296624818e-07
-8.406445668e-07
-5.648244615e-07
-1.187744729e-07
-4.351981425e-17
-9.247703891e-17
-1.419429566e-16
-1.893794608e-16
-2.361224811e-16
-2.823693727e-16
-3.280750472e-16
-3.73162293e-16
-4.175503718e-16
-4.611610349e-16
-5.03919793e-16
-5.4575633e-16
-5.866042256e-16
-6.264006462e-16
-6.65086666e-16
-7.026073946e-16
-7.389121777e-16
-7.739545538e-16
-8.076923471e-16
-8.400876359e-16
-8.711066211e-16
-9.007193944e-16
-9.288999464e-16
-9.556257613e-16
-9.808776958e-16
-1.004639785e-15
-1.026898925e-15
-1.047644673e-15
-1.066868806e-15
-1.084565261e-15
-1.100729713e-15
-1.115359259e-15
-1.128452237e-15
-1.14000784e-15
-1.15002584e-15
-1.158506169e-15
-1.165448593e-15
-1.170852364e-15
-1.174715842e-15
-1.177036993e-15
-5.890195434e-16
-1.047515405e-07
-2.435975057e-07
-3.623599148e-07
-4.448127024e-07
-5.013237273e-07
-5.296297014e-07
-5.034589303e-07
-2.772910172e-07
-4.895691085e-09
-4.353720883e-17
-9.251074747e-17
-1.419955068e-16
-1.894497142e-16
-2.362099595e-16
-2.824732615e-16
-3.281939193e-16
-3.732957602e-16
-4.176983297e-16
-4.613226565e-16
-5.040938933e-16
-5.459417068e-16
-5.86799811e-16
-6.266056394e-16
-6.653003757e-16
-7.028292179e-16
-7.391415139e-16
-7.741908112e-16
-8.0793493e-16
-8.40335966e-16
-8.713600268e-16
-9.009773466e-16
-9.29161813e-16
-9.558909896e-16
-9.811457598e-16
-1.004910183e-15
-1.027171153e-15
-1.04791817e-15
-1.06714305e-15
-1.084839713e-15
-1.101003724e-15
-1.115632167e-15
-1.128723304e-15
-1.140276212e-15
-1.150290536e-15
-1.158766214e-15
-1.165703161e-15
-1.171100896e-15
-1.174958762e-15
-1.177275776e-15
-5.891509722e-16
-7.32154908e-08
-1.538987753e-07
-1.917160757e-07
-1.996628687e-07
-1.920639281e-07
-1.675368769e-07
-1.117176866e-07
3.009337963e-08
8.752490098e-08
-4.355317065e-17
-9.254375085e-17
-1.420474326e-16
-1.895193924e-16
-2.362971478e-16
-2.825777701e-16
-3.283135966e-16
-3.734298933e-16
-4.178471945e-16
-4.61486028e-16
-5.042708162e-16
-5.461309027e-16
-5.870000948e-16
-6.268160743e-16
-6.655201914e-16
-7.030577821e-16
-7.393781654e-16
-7.744350119e-16
-8.08186127e-16
-8.405934624e-16
-8.716232584e-16
-9.012456768e-16
-9.294346859e-16
-9.561677954e-16
-9.814259717e-16
-1.005193227e-15
-1.027456443e-15
-1.0482052e-15
-1.067431245e-15
-1.085128458e-15
-1.101292415e-15
-1.115920144e-15
-1.12900985e-15
-1.140560593e-15
-1.150571987e-15
-1.159044078e-15
-1.165976818e-15
-1.1713702e-15
-1.175223989e-15
-1.17753784e-15
-5.892867352e-16
-3.12971913e-08
-4.230792527e-08
3.147703702e-09
6.484940906e-08
1.234316871e-07
1.803604713e-07
2.405669701e-07
2.719289475e-07
1.231001448e-07
-4.356799922e-17
-9.257639829e-17
-1.420984395e-16
-1.895870823e-16
-2.363815642e-16
-2.826801457e-16
-3.284312602e-16
-3.735611514e-16
-4.179923852e-16
-4.616454555e-16
-5.044440775e-16
-5.46316901e-16
-5.871975847e-16
-6.27024056e-16
-6.65737845e-16
-7.032843795e-16
-7.396131044e-16
-7.746777112e-16
-8.084359729e-16
-8.408499165e-16
-8.718857165e-16
-9.015135089e-16
-9.297072947e-16
-9.564446421e-16
-9.817064526e-16
-1.00547676e-15
-1.02774254e-15
-1.04849318e-15
-1.067720632e-15
-1.085418627e-15
-1.101582775e-15
-1.116210076e-15
-1.129298713e-15
-1.140847746e-15
-1.150856853e-15
-1.159326043e-15
-1.166255599e-15
-1.171645633e-15
-1.175496292e-15
-1.17780761e-15
-5.894239734e-16
1.552045015e-08
7.346788572e-08
1.848211964e-07
2.907210733e-07
3.663941033e-07
4.148592013e-07
4.39982193e-07
3.64642282e-07
9.081859353e-08
-4.358250161e-17
-9.260946102e-17
-1.421494764e-16
-1.896534335e-16
-2.364625047e-16
-2.827792753e-16
-3.285466103e-16
-3.736898082e-16
-4.181338222e-16
-4.618002042e-16
-5.046122606e-16
-5.464979478e-16
-5.873903956e-16
-6.272275588e-16
-6.65951151e-16
-7.03506781e-16
-7.398439472e-16
-7.749163932e-16
-8.086819468e-16
-8.411026701e-16
-8.721446091e-16
-9.017779767e-16
-9.29976734e-16
-9.567184934e-16
-9.819841199e-16
-1.005757702e-15
-1.028026151e-15
-1.048778964e-15
-1.068007956e-15
-1.085706954e-15
-1.101871511e-15
-1.116498667e-15
-1.129586543e-15
-1.141134302e-15
-1.151141607e-15
-1.159608596e-15
-1.166535625e-15
-1.171923033e-15
-1.175771186e-15
-1.178080328e-15
-5.895608994e-16
5.825777909e-08
1.684162087e-07
3.081974092e-07
4.151433838e-07
4.615121592e-07
4.533189524e-07
4.024823161e-07
2.659402751e-07
2.343217751e-08
-4.359739591e-17
-9.264222608e-17
-1.422005125e-16
-1.8971907e-16
-2.365395508e-16
-2.828729207e-16
-3.286577113e-16
-3.738151279e-16
-4.182714433e-16
-4.619500549e-16
-5.047747392e-16
-5.466728767e-16
-5.875771067e-16
-6.274250305e-16
-6.66158524e-16
-7.037232394e-16
-7.400688831e-16
-7.75149203e-16
-8.089220901e-16
-8.413495784e-16
-8.7239778e-16
-9.020368562e-16
-9.302406959e-16
-9.569869756e-16
-9.822565708e-16
-1.006033563e-15
-1.028304842e-15
-1.049059939e-15
-1.06829065e-15
-1.085990826e-15
-1.102156007e-15
-1.116783269e-15
-1.129870732e-15
-1.141417548e-15
-1.151423499e-15
-1.15988875e-15
-1.166813752e-15
-1.172199063e-15
-1.176045131e-15
-1.178352321e-15
-5.896957018e-16
8.65889908e-08
2.174468254e-07
3.358621661e-07
3.942501802e-07
3.703462172e-07
2.76503829e-07
1.284231103e-07
-2.089382833e-08
-2.729599766e-08
-4.361311291e-17
-9.267206277e-17
-1.422497e-16
-1.897842216e-16
-2.366142437e-16
-2.829596186e-16
-3.287613643e-16
-3.739346834e-16
-4.184038611e-16
-4.620942329e-16
-5.04930731e-16
-5.468407063e-16
-5.877562839e-16
-6.276148843e-16
-6.66358214e-16
-7.039320249e-16
-7.402860615e-16
-7.753741957e-16
-8.091543625e-16
-8.415886002e-16
-8.726430332e-16
-9.022877774e-16
-9.30496812e-16
-9.572476557e-16
-9.8252129e-16
-1.006301754e-15
-1.028575988e-15
-1.049333463e-15
-1.068566041e-15
-1.086267542e-15
-1.102433574e-15
-1.117061114e-15
-1.130148416e-15
-1.141694597e-15
-1.151699534e-15
-1.160163424e-15
-1.167086823e-15
-1.172470368e-15
-1.176314646e-15
-1.178620099e-15
-5.898266149e-16
9.231985892e-08
2.051543973e-07
2.555735228e-07
2.251585197e-07
1.105597659e-07
-5.527242681e-08
-2.739226176e-07
-4.748361145e-07
-8.90357069e-08
-4.362991502e-17
-9.269664272e-17
-1.4229345e-16
-1.898464211e-16
-2.366897865e-16
-2.830418228e-16
-3.288566007e-16
-3.740457738e-16
-4.185287763e-16
-4.622311198e-16
-5.050789806e-16
-5.470001568e-16
-5.879266494e-16
-6.277955548e-16
-6.665484891e-16
-7.041312069e-16
-7.404935095e-16
-7.755893048e-16
-8.093766157e-16
-8.418174823e-16
-8.728780638e-16
-9.025284578e-16
-9.307425673e-16
-9.574979896e-16
-9.827756746e-16
-1.006559646e-15
-1.02883684e-15
-1.04959679e-15
-1.068831313e-15
-1.086534269e-15
-1.102701247e-15
-1.117329282e-15
-1.130416631e-15
-1.14196246e-15
-1.151966623e-15
-1.160429456e-15
-1.167351544e-15
-1.172733582e-15
-1.176576262e-15
-1.178880084e-15
-5.899518877e-16
7.301467547e-08
1.336244285e-07
9.095726124e-08
-4.285259713e-08
-2.511674649e-07
-4.531392245e-07
-6.587070254e-07
-1.024218458e-06
-3.66957218e-07
-4.36475535e-17
-9.271762475e-17
-1.423300519e-16
-1.898988181e-16
-2.367647792e-16
-2.831232841e-16
-3.28946132e-16
-3.741482339e-16
-4.186445091e-16
-4.623588165e-16
-5.052178178e-16
-5.471497347e-16
-5.880866599e-16
-6.27965435e-16
-6.667276193e-16
-7.043189319e-16
-7.406892082e-16
-7.757924527e-16
-8.095866883e-16
-8.42033988e-16
-8.731004747e-16
-9.027563273e-16
-9.309754435e-16
-9.577353453e-16
-9.83016991e-16
-1.006804404e-15
-1.029084609e-15
-1.049847019e-15
-1.069083535e-15
-1.086788017e-15
-1.10295607e-15
-1.11758475e-15
-1.130672288e-15
-1.142217938e-15
-1.152221584e-15
-1.160683572e-15
-1.167604561e-15
-1.172985318e-15
-1.176826546e-15
-1.179128811e-15
-5.900698078e-16
3.41714917e-08
2.306084138e-08
-1.079548334e-07
-3.209372803e-07
-6.097366579e-07
-8.468882366e-07
-1.013796901e-06
-1.417576731e-06
-1.139169769e-06
-4.366498856e-17
-9.274047814e-17
-1.423644166e-16
-1.899374071e-16
-2.368299138e-16
-2.83201462e-16
-3.290320308e-16
-3.742437228e-16
-4.187510336e-16
-4.624762903e-16
-5.053457794e-16
-5.472879022e-16
-5.882347011e-16
-6.281228871e-16
-6.668938119e-16
-7.044932888e-16
-7.408711538e-16
-7.759814575e-16
-8.097822564e-16
-8.42235686e-16
-8.733078852e-16
-9.029689363e-16
-9.311928022e-16
-9.579570447e-16
-9.832425013e-16
-1.007033322e-15
-1.02931637e-15
-1.050081269e-15
-1.069319757e-15
-1.087025795e-15
-1.103194963e-15
-1.117824367e-15
-1.130912257e-15
-1.142457851e-15
-1.152461125e-15
-1.160922454e-15
-1.167842517e-15
-1.173222113e-15
-1.177062014e-15
-1.17936284e-15
-5.901786538e-16
-1.024954327e-08
-9.031700334e-08
-2.924041862e-07
-5.449461059e-07
-8.842241939e-07
-1.196650438e-06
-1.518039264e-06
-9.518631547e-07
-2.317299738e-06
-4.368087773e-17
-9.276760251e-17
-1.424036673e-16
-1.899727362e-16
-2.368788301e-16
-2.832672241e-16
-3.291100715e-16
-3.74331279e-16
-4.188479168e-16
-4.625826427e-16
-5.054616237e-16
-5.474131575e-16
-5.883691728e-16
-6.282661763e-16
-6.670453184e-16
-7.046524194e-16
-7.410373242e-16
-7.761542126e-16
-8.099611352e-16
-8.424202595e-16
-8.734977749e-16
-9.0316373e-16
-9.313920754e-16
-9.581603419e-16
-9.834494695e-16
-1.007243476e-15
-1.029529336e-15
-1.050296554e-15
-1.069537025e-15
-1.087244577e-15
-1.10341491e-15
-1.118045075e-15
-1.131133371e-15
-1.142679044e-15
-1.152682037e-15
-1.161142815e-15
-1.168062084e-15
-1.173440671e-15
-1.177279343e-15
-1.179578737e-15
-5.902767888e-16
-4.379677785e-08
-1.566670171e-07
-3.751218066e-07
-6.109117599e-07
-1.037642548e-06
-1.594585014e-06
-2.176247901e-06
1.257987351e-06
-3.059678789e-06
-4.369661811e-17
-9.279663744e-17
-1.424431839e-16
-1.90022239e-16
-2.369228563e-16
-2.833202063e-16
-3.291760175e-16
-3.744077316e-16
-4.189331605e-16
-4.626763024e-16
-5.055637884e-16
-5.475239506e-16
-5.884884516e-16
-6.283935217e-16
-6.671802735e-16
-7.047943355e-16
-7.411857418e-16
-7.763086145e-16
-8.101211317e-16
-8.425854503e-16
-8.736677849e-16
-9.033382182e-16
-9.315706954e-16
-9.583427086e-16
-9.836351813e-16
-1.007432173e-15
-1.029720611e-15
-1.050490059e-15
-1.069732355e-15
-1.0874414e-15
-1.103612843e-15
-1.118243774e-15
-1.131332504e-15
-1.142878301e-15
-1.152881163e-15
-1.161341462e-15
-1.16826002e-15
-1.173637669e-15
-1.177475193e-15
-1.179773272e-15
-5.903626244e-16
-5.962463186e-08
-1.575068955e-07
-2.992764559e-07
-3.602602948e-07
-8.22306267e-07
-1.802102943e-06
-3.108600944e-06
4.486268554e-06
-2.03138321e-06
-4.370954912e-17
-9.282646815e-17
-1.424655515e-16
-1.90078614e-16
-2.369739928e-16
-2.833714694e-16
-3.292345804e-16
-3.744740389e-16
-4.190062785e-16
-4.627562532e-16
-5.056509679e-16
-5.476187322e-16
-5.885908672e-16
-6.285032887e-16
-6.672968185e-16
-7.049171602e-16
-7.413143361e-16
-7.764425503e-16
-8.102600147e-16
-8.427289337e-16
-8.738155485e-16
-9.03489999e-16
-9.317261241e-16
-9.585015278e-16
-9.837969876e-16
-1.007596686e-15
-1.029887466e-15
-1.050658943e-15
-1.069902933e-15
-1.08761336e-15
-1.103785855e-15
-1.118417522e-15
-1.131506711e-15
-1.143052668e-15
-1.153055373e-15
-1.161515323e-15
-1.168433232e-15
-1.173810023e-15
-1.177646492e-15
-1.179943254e-15
-5.904346781e-16
-5.076150361e-08
-9.304553758e-08
-1.351552691e-07
2.685191407e-08
-1.135373633e-07
-1.38817887e-06
-4.179366211e-06
4.544597747e-06
6.267899976e-07
-4.370941303e-17
-9.286585715e-17
-1.424742746e-16
-1.901146861e-16
-2.370189535e-16
-2.834204136e-16
-3.292886602e-16
-3.745328108e-16
-4.190688328e-16
-4.628229149e-16
-5.05722784e-16
-5.476965701e-16
-5.886751332e-16
-6.28593844e-16
-6.673933018e-16
-7.050190593e-16
-7.414212403e-16
-7.765540302e-16
-8.103757445e-16
-8.428486017e-16
-8.739389072e-16
-9.036167328e-16
-9.318560358e-16
-9.586343128e-16
-9.839324472e-16
-1.007734458e-15
-1.030027336e-15
-1.05080056e-15
-1.070046071e-15
-1.087757692e-15
-1.103931139e-15
-1.118563475e-15
-1.131653059e-15
-1.143199156e-15
-1.153201757e-15
-1.161661367e-15
-1.168578722e-15
-1.173954685e-15
-1.177790161e-15
-1.180085768e-15
-5.904915003e-16
-1.54645178e-08
4.534920629e-08
1.427291301e-07
3.723760782e-07
8.223089783e-07
1.856219489e-07
-4.064727549e-06
1.240267258e-07
2.716976503e-06
-4.368761148e-17
-9.290887993e-17
-1.424983881e-16
-1.901337469e-16
-2.370471374e-16
-2.834567052e-16
-3.29332081e-16
-3.745813506e-16
-4.191202287e-16
-4.62876549e-16
-5.057793077e-16
-5.477570454e-16
-5.887403085e-16
-6.286639611e-16
-6.674682167e-16
-7.050984056e-16
-7.415046326e-16
-7.766411543e-16
-8.104663068e-16
-8.429423803e-16
-8.740356565e-16
-9.03716288e-16
-9.319581613e-16
-9.58738839e-16
-9.840391061e-16
-1.007843079e-15
-1.030137658e-15
-1.050912392e-15
-1.070159166e-15
-1.087871849e-15
-1.104046075e-15
-1.11867898e-15
-1.131768931e-15
-1.143315117e-15
-1.153317631e-15
-1.161776909e-15
-1.168693715e-15
-1.174068981e-15
-1.177903503e-15
-1.180198008e-15
-5.905318951e-16
3.830018565e-09
1.692304804e-07
4.998029644e-07
8.957356414e-07
1.850035716e-06
2.683561355e-06
-7.943366136e-07
-2.819209463e-06
2.973238024e-06
-4.366277138e-17
-9.292394728e-17
-1.425322163e-16
-1.901516254e-16
-2.370669506e-16
-2.834793823e-16
-3.293593594e-16
-3.746140292e-16
-4.191568122e-16
-4.629152894e-16
-5.058197485e-16
-5.477996049e-16
-5.88785659e-16
-6.287125905e-16
-6.675202003e-16
-7.051536807e-16
-7.415629375e-16
-7.767022662e-16
-8.105299606e-16
-8.430084206e-16
-8.741039154e-16
-9.037866543e-16
-9.320304575e-16
-9.588129074e-16
-9.841148569e-16
-1.007920328e-15
-1.030216238e-15
-1.050992165e-15
-1.070239925e-15
-1.087953419e-15
-1.104128259e-15
-1.118761616e-15
-1.131851775e-15
-1.143398066e-15
-1.153400436e-15
-1.161859395e-15
-1.168775723e-15
-1.17415031e-15
-1.177983978e-15
-1.180277444e-15
-5.905546859e-16
1.934763964e-08
1.790303706e-07
4.316105968e-07
1.161542537e-06
2.239449486e-06
3.548263938e-06
3.15828973e-06
-3.018255772e-06
2.139562997e-06
-4.367237068e-17
-9.291302626e-17
-1.42549635e-16
-1.901652891e-16
-2.370840853e-16
-2.834943577e-16
-3.293720742e-16
-3.746285424e-16
-4.1917502e-16
-4.629362892e-16
-5.058421862e-16
-5.478230869e-16
-5.888103394e-16
-6.287388178e-16
-6.675482202e-16
-7.051835927e-16
-7.415946886e-16
-7.767357214e-16
-8.105650115e-16
-8.430449844e-16
-8.741419005e-16
-9.038259664e-16
-9.320710691e-16
-9.588546922e-16
-9.841577457e-16
-1.007964226e-15
-1.030261042e-15
-1.051037758e-15
-1.070286198e-15
-1.088000247e-15
-1.104175525e-15
-1.118809183e-15
-1.131899467e-15
-1.143445714e-15
-1.153447952e-15
-1.161906585e-15
-1.16882245e-15
-1.174196385e-15
-1.178029276e-15
-1.180321829e-15
-5.905588799e-16
6.377559076e-08
3.348690152e-07
4.114097663e-09
7.428349586e-07
2.073562332e-06
2.606406038e-06
4.345811586e-06
-2.388827391e-06
1.237125027e-06
-4.369772711e-17
-9.290024075e-17
-1.425468239e-16
-1.901679472e-16
-2.370937337e-16
-2.83503838e-16
-3.293749218e-16
-3.746274324e-16
-4.191745497e-16
-4.629377395e-16
-5.058448326e-16
-5.478259834e-16
-5.888131206e-16
-6.287415503e-16
-6.675512203e-16
-7.051870318e-16
-7.415986669e-16
-7.767402768e-16
-8.105701401e-16
-8.4305066e-16
-8.741481132e-16
-9.038326988e-16
-9.320783312e-16
-9.588624999e-16
-9.841660183e-16
-1.007972996e-15
-1.030270271e-15
-1.051047389e-15
-1.070296157e-15
-1.088010497e-15
-1.104185986e-15
-1.118819713e-15
-1.131910046e-15
-1.143456189e-15
-1.153458191e-15
-1.161916522e-15
-1.168831899e-15
-1.174205294e-15
-1.178037474e-15
-1.180329167e-15
-5.905436399e-16
-3.932485564e-08
7.194777505e-07
1.399113393e-08
-1.466180508e-07
1.052513877e-06
1.340592169e-06
3.490159715e-06
-1.177450243e-06
6.118991847e-07
-4.371306616e-17
-9.289668118e-17
-1.425350058e-16
-1.901599e-16
-2.370872887e-16
-2.835018062e-16
-3.293681422e-16
-3.74613669e-16
-4.191573629e-16
-4.629199295e-16
-5.058268041e-16
-5.478070842e-16
-5.887928727e-16
-6.287198304e-16
-6.675282246e-16
-7.051629847e-16
-7.415738177e-16
-7.767147713e-16
-8.105441102e-16
-8.430241655e-16
-8.741212474e-16
-9.038055122e-16
-9.320508986e-16
-9.588348575e-16
-9.84138282e-16
-1.007945155e-15
-1.030242404e-15
-1.0510195e-15
-1.07026828e-15
-1.08798256e-15
-1.104158029e-15
-1.118791659e-15
-1.13188184e-15
-1.143427798e-15
-1.153429519e-15
-1.16188747e-15
-1.168802447e-15
-1.174175284e-15
-1.178006873e-15
-1.180297849e-15
-5.905083118e-16
-4.342753132e-07
8.239602515e-07
9.311922228e-07
-5.27086149e-08
-5.426228424e-08
3.178044137e-07
1.987857067e-06
-6.540430495e-07
1.53063806e-07
-4.37150289e-17
-9.290344696e-17
-1.425245236e-16
-1.901468897e-16
-2.370623382e-16
-2.834798728e-16
-3.293458355e-16
-3.745859218e-16
-4.191243136e-16
-4.628835212e-16
-5.05787981e-16
-5.477657951e-16
-5.887487296e-16
-6.28672746e-16
-6.674783336e-16
-7.051106439e-16
-7.415192884e-16
-7.766583309e-16
-8.104859724e-16
-8.429645044e-16
-8.740602386e-16
-9.037433317e-16
-9.319876403e-16
-9.587707053e-16
-9.840733503e-16
-1.007879542e-15
-1.030176232e-15
-1.050952885e-15
-1.070201268e-15
-1.08791522e-15
-1.104090341e-15
-1.118723715e-15
-1.131813574e-15
-1.143359219e-15
-1.15336061e-15
-1.161818208e-15
-1.168732744e-15
-1.17410511e-15
-1.177936127e-15
-1.180226512e-15
-5.904523768e-16
-8.103185128e-07
1.574008125e-07
1.494994288e-06
1.072121251e-06
-3.163104197e-10
-6.250236449e-08
9.801063865e-07
1.333444558e-07
3.642573545e-07
-4.370394099e-17
-9.290771628e-17
-1.425147082e-16
-1.901332262e-16
-2.370287197e-16
-2.834400141e-16
-3.293045243e-16
-3.745409583e-16
-4.190741617e-16
-4.628283823e-16
-5.057284113e-16
-5.477017651e-16
-5.886801652e-16
-6.285996446e-16
-6.674009486e-16
-7.050292997e-16
-7.414344056e-16
-7.765702462e-16
-8.103950088e-16
-8.428709591e-16
-8.739643587e-16
-9.036453111e-16
-9.318877671e-16
-9.58669131e-16
-9.839703046e-16
-1.00777527e-15
-1.030070883e-15
-1.050846592e-15
-1.070094197e-15
-1.087807501e-15
-1.103982022e-15
-1.118614858e-15
-1.131704284e-15
-1.143249491e-15
-1.153250478e-15
-1.161707644e-15
-1.168621775e-15
-1.173993729e-15
-1.177824305e-15
-1.180114192e-15
-5.903755533e-16
-6.163280696e-07
-4.504806832e-07
1.004560224e-06
1.655386895e-06
6.809587353e-07
3.604130475e-07
6.180148057e-07
3.987990302e-07
1.395969349e-06
-4.368671646e-17
-9.289613495e-17
-1.424952505e-16
-1.90107838e-16
-2.369916336e-16
-2.83390515e-16
-3.292474687e-16
-3.744783938e-16
-4.190057757e-16
-4.627538499e-16
-5.056476156e-16
-5.476147228e-16
-5.885867965e-16
-6.285001147e-16
-6.672955534e-16
-7.049185331e-16
-7.413187245e-16
-7.764500914e-16
-8.102707759e-16
-8.427430233e-16
-8.738330339e-16
-9.035109481e-16
-9.317506646e-16
-9.585295993e-16
-9.838286641e-16
-1.007631737e-15
-1.029925737e-15
-1.050700043e-15
-1.069946464e-15
-1.08765875e-15
-1.103832434e-15
-1.118464531e-15
-1.131553297e-15
-1.143097961e-15
-1.153098458e-15
-1.161555195e-15
-1.168468931e-15
-1.173840505e-15
-1.177670699e-15
-1.179960253e-15
-5.902776435e-16
-3.189500449e-08
-2.526398636e-07
4.161705354e-07
1.322342875e-06
9.121007205e-07
1.356059102e-06
1.56736556e-06
-5.878583281e-07
2.32170366e-06
-4.367123642e-17
-9.287465878e-17
-1.424680463e-16
-1.900591166e-16
-2.369423583e-16
-2.833316438e-16
-3.291775193e-16
-3.74399525e-16
-4.189191318e-16
-4.626594834e-16
-5.055453854e-16
-5.475043486e-16
-5.88468386e-16
-6.28373911e-16
-6.67161985e-16
-7.04778115e-16
-7.411720029e-16
-7.762976078e-16
-8.101130159e-16
-8.425804601e-16
-8.736660696e-16
-9.033400135e-16
-9.315761475e-16
-9.58351877e-16
-9.836480644e-16
-1.007448688e-15
-1.029740533e-15
-1.050512991e-15
-1.069757803e-15
-1.087468718e-15
-1.103641259e-15
-1.118272392e-15
-1.131360382e-15
-1.14290437e-15
-1.15290429e-15
-1.161360566e-15
-1.168273896e-15
-1.173645149e-15
-1.177475072e-15
-1.179764354e-15
-5.901587422e-16
2.951442924e-07
1.831782218e-07
3.027358229e-07
8.770330878e-07
7.303394074e-07
1.767014309e-06
2.818806012e-06
-1.207493259e-06
2.790178414e-06
-4.36538896e-17
-9.284320153e-17
-1.424413041e-16
-1.899986556e-16
-2.368782855e-16
-2.832602798e-16
-3.290944983e-16
-3.74305237e-16
-4.188147967e-16
-4.625454353e-16
-5.054215052e-16
-5.473706217e-16
-5.883248627e-16
-6.282209605e-16
-6.670001722e-16
-7.04608024e-16
-7.409942546e-16
-7.761128324e-16
-8.099217825e-16
-8.423832742e-16
-8.734634848e-16
-9.031325147e-16
-9.313642018e-16
-9.581359505e-16
-9.834286495e-16
-1.007226143e-15
-1.02951531e-15
-1.050285443e-15
-1.069528258e-15
-1.087237478e-15
-1.103408609e-15
-1.118038546e-15
-1.131125511e-15
-1.14266872e-15
-1.152668024e-15
-1.161123803e-15
-1.168036772e-15
-1.173407715e-15
-1.177237464e-15
-1.179526618e-15
-5.900189808e-16
2.173473411e-07
2.02883192e-07
3.282520241e-07
9.458628095e-07
1.104721628e-06
1.281844159e-06
2.301051556e-06
-2.985714119e-06
2.287988384e-06
-4.364640343e-17
-9.278971031e-17
-1.424011212e-16
-1.899372287e-16
-2.368046021e-16
-2.831755637e-16
-3.289973376e-16
-3.741955453e-16
-4.186930431e-16
-4.624119538e-16
-5.05276197e-16
-5.472135293e-16
-5.881562902e-16
-6.280414203e-16
-6.668102809e-16
-7.044084663e-16
-7.407857229e-16
-7.758960049e-16
-8.096973237e-16
-8.421517924e-16
-8.732255697e-16
-9.028887408e-16
-9.311151284e-16
-9.578821952e-16
-9.831706394e-16
-1.006964494e-15
-1.029250383e-15
-1.050017756e-15
-1.069258181e-15
-1.086965375e-15
-1.103134777e-15
-1.117763325e-15
-1.130849172e-15
-1.142391442e-15
-1.152390034e-15
-1.160845285e-15
-1.167757883e-15
-1.173128614e-15
-1.176958232e-15
-1.179247393e-15
-5.898587704e-16
4.065176535e-08
-8.489869317e-08
1.51732497e-08
1.057153458e-06
1.766399209e-06
1.10372159e-06
2.298282822e-06
-3.504342577e-06
1.561136451e-07
-4.366764922e-17
-9.273187457e-17
-1.423406215e-16
-1.898731732e-16
-2.367245355e-16
-2.830789472e-16
-3.288858789e-16
-3.740701776e-16
-4.185540086e-16
-4.622591808e-16
-5.051096633e-16
-5.470334215e-16
-5.879630303e-16
-6.278356192e-16
-6.665926998e-16
-7.041798304e-16
-7.405468381e-16
-7.756475978e-16
-8.094401059e-16
-8.418864821e-16
-8.729528457e-16
-9.026092553e-16
-9.308295638e-16
-9.575911349e-16
-9.828747433e-16
-1.00666431e-15
-1.028946475e-15
-1.049710607e-15
-1.068948261e-15
-1.086653089e-15
-1.102820526e-15
-1.117447435e-15
-1.130532003e-15
-1.142073223e-15
-1.152071049e-15
-1.160525744e-15
-1.16743799e-15
-1.172808556e-15
-1.176638147e-15
-1.178927412e-15
-5.896785929e-16
-3.03801266e-08
-1.792862968e-07
-4.096981573e-07
4.761408311e-07
1.347175412e-06
9.459364401e-07
1.818694027e-06
-1.991649634e-07
-1.966636687e-06
-4.368268959e-17
-9.268846295e-17
-1.422720174e-16
-1.898018001e-16
-2.366365047e-16
-2.829713852e-16
-3.287610175e-16
-3.73929538e-16
-4.183978873e-16
-4.620874024e-16
-5.049222287e-16
-5.468306479e-16
-5.877454797e-16
-6.276040574e-16
-6.663479316e-16
-7.039227568e-16
-7.402782121e-16
-7.753682679e-16
-8.091508765e-16
-8.415881044e-16
-8.726460963e-16
-9.022948811e-16
-9.305082868e-16
-9.572637095e-16
-9.825417975e-16
-1.006326517e-15
-1.028604476e-15
-1.049364914e-15
-1.068599418e-15
-1.086301608e-15
-1.102466787e-15
-1.11709188e-15
-1.130174986e-15
-1.141715119e-15
-1.151712077e-15
-1.160166221e-15
-1.167078104e-15
-1.172448535e-15
-1.176278155e-15
-1.178567675e-15
-5.894790994e-16
-1.166596829e-07
3.812130785e-09
-2.872412106e-07
-3.952545383e-07
-6.93240489e-07
-5.617934319e-07
-1.470219355e-06
1.798240194e-06
-2.370290581e-06
-4.366601117e-17
-9.265678388e-17
-1.422072939e-16
-1.89722607e-16
-2.365381872e-16
-2.828525464e-16
-3.286233123e-16
-3.73774232e-16
-4.182250986e-16
-4.618970108e-16
-5.047143469e-16
-5.466057557e-16
-5.875043123e-16
-6.273474713e-16
-6.660767805e-16
-7.036379665e-16
-7.39980747e-16
-7.750589031e-16
-8.088305286e-16
-8.412576204e-16
-8.72306287e-16
-9.019466138e-16
-9.301523658e-16
-9.569009227e-16
-9.821729529e-16
-1.005952261e-15
-1.028225522e-15
-1.048981899e-15
-1.068212899e-15
-1.085912132e-15
-1.102074864e-15
-1.116697946e-15
-1.129779435e-15
-1.14131834e-15
-1.151314414e-15
-1.159767962e-15
-1.166679528e-15
-1.172049853e-15
-1.175879632e-15
-1.178169478e-15
-5.892610789e-16
-3.786646499e-07
-4.170262867e-08
3.354103489e-07
-2.970267858e-07
-2.115089352e-06
-1.922060429e-06
-4.168495426e-06
1.235545895e-06
-1.577747617e-06
-4.362854626e-17
-9.262365562e-17
-1.421450034e-16
-1.896364135e-16
-2.364294154e-16
-2.827224384e-16
-3.284732504e-16
-3.736047283e-16
-4.180361183e-16
-4.616885324e-16
-5.044866252e-16
-5.463594199e-16
-5.872402421e-16
-6.270665889e-16
-6.65780122e-16
-7.033264498e-16
-7.396553251e-16
-7.747205718e-16
-8.084801448e-16
-8.408961494e-16
-8.719346501e-16
-9.015657305e-16
-9.297630957e-16
-9.56504161e-16
-9.817695339e-16
-1.005542969e-15
-1.027811041e-15
-1.048562961e-15
-1.067790152e-15
-1.085486146e-15
-1.101646201e-15
-1.116267098e-15
-1.129346856e-15
-1.140884456e-15
-1.150879606e-15
-1.159332546e-15
-1.166243798e-15
-1.171614063e-15
-1.17544405e-15
-1.177734296e-15
-5.890253914e-16
-5.611872621e-07
-5.663754045e-07
3.825906896e-07
3.443455093e-07
-1.774049262e-06
-1.931210121e-06
-4.299913781e-06
1.898866049e-07
-7.181956163e-07
-4.359337544e-17
-9.258226325e-17
-1.420778909e-16
-1.895426375e-16
-2.363112025e-16
-2.825818671e-16
-3.283113144e-16
-3.734215169e-16
-4.178314687e-16
-4.614625397e-16
-5.042397629e-16
-5.460924803e-16
-5.869541687e-16
-6.267624651e-16
-6.654589318e-16
-7.029892589e-16
-7.393031272e-16
-7.743543894e-16
-8.081009907e-16
-8.405050011e-16
-8.715325244e-16
-9.011536069e-16
-9.293419496e-16
-9.560748952e-16
-9.813330468e-16
-1.005100171e-15
-1.027362672e-15
-1.048109771e-15
-1.067332828e-15
-1.085025361e-15
-1.101182518e-15
-1.115801092e-15
-1.128879022e-15