/*--------------------------------*- C++ -*----------------------------------*\
  =========                 |
  \\      /  F ield         | OpenFOAM: The Open Source CFD Toolbox
   \\    /   O peration     | Website:  https://openfoam.org
    \\  /    A nd           | Version:  6
     \\/     M anipulation  |
\*---------------------------------------------------------------------------*/
FoamFile
{
    version     2.0;
    format      ascii;
    class       volScalarField;
    location    "0.01";
    object      p_rgh;
}
// * * * * * * * * * * * * * * * * * * * * * * * * * * * * * * * * * * * * * //

dimensions      [1 -1 -2 0 0 0 0];

internalField   nonuniform List<scalar> 
2500
(
0.0006426136278
0.001862958188
0.002996734187
0.003980300789
0.00476365496
0.005307526518
0.005610794384
0.00536052082
27276.10735
27278.17268
27280.21488
27282.22222
27284.17895
27286.07101
27287.88634
27289.61516
27291.25
27292.7857
27294.2193
27295.54981
27296.77797
27297.90597
27298.93719
27299.87589
27300.72702
27301.49593
27302.18822
27302.80961
27303.36573
27303.86208
27304.30396
27304.69638
27305.04404
27305.35133
27305.62229
27305.86062
27306.06968
27306.25253
27306.41192
27306.55028
27306.66979
27306.77237
27306.85969
27306.93319
27306.9941
27307.04345
27307.08208
27307.11063
27307.12956
27307.1391
0.0006741684937
0.001953827194
0.003142305863
0.004173720386
0.004995401235
0.005566289611
0.005884053739
0.005626915944
27276.10763
27278.19062
27280.24979
27282.2729
27284.24375
27286.1479
27287.97307
27289.70939
27291.34942
27292.88814
27294.32278
27295.65259
27296.8786
27298.00327
27299.03025
27299.96406
27300.80985
27301.57319
27302.25983
27302.8756
27303.42625
27303.91734
27304.35424
27304.74198
27305.08529
27305.38856
27305.65584
27305.89082
27306.09686
27306.27699
27306.43394
27306.57015
27306.68776
27306.78868
27306.87456
27306.94684
27307.00673
27307.05526
27307.09324
27307.12135
27307.14006
27307.14975
0.0007381788426
0.002139239857
0.003440477022
0.004570314162
0.00547099896
0.006097245917
0.006446134282
0.006163918329
27276.10817
27278.22717
27280.3209
27282.3761
27284.37556
27286.30414
27288.14913
27289.90046
27291.55079
27293.09537
27294.53185
27295.86002
27297.08147
27298.19924
27299.21753
27300.14136
27300.97634
27301.7284
27302.40362
27303.00808
27303.54773
27304.02828
27304.45519
27304.83357
27305.16819
27305.46344
27305.72339
27305.95169
27306.1517
27306.32642
27306.47854
27306.61046
27306.7243
27306.82192
27306.90496
27306.97482
27307.03269
27307.07956
27307.11627
27307.14343
27307.16155
27307.17096
0.0008374960168
0.002427394213
0.003904410804
0.005188084041
0.006212647255
0.006925938342
0.007323969178
0.007000850027
27276.10903
27278.28362
27280.43068
27282.53523
27284.57853
27286.54432
27288.41924
27290.193
27291.85844
27293.41128
27294.8499
27296.17491
27297.38882
27298.49555
27299.50018
27300.40849
27301.22677
27301.96152
27302.61931
27303.20657
27303.72953
27304.19415
27304.60599
27304.97028
27305.29184
27305.57508
27305.82404
27306.04237
27306.23337
27306.40001
27306.54492
27306.67046
27306.77868
27306.87141
27306.95022
27307.01647
27307.07133
27307.11575
27307.15053
27307.17629
27307.19348
27307.20243
0.0009761233293
0.002830332316
0.004554065912
0.006054661025
0.007254824485
0.00809215011
0.008560507536
0.008178412555
27276.11023
27278.36211
27280.58311
27282.7558
27284.85926
27286.8757
27288.79089
27290.59434
27292.27921
27293.84202
27295.28221
27296.60164
27297.8041
27298.89482
27299.88004
27300.76661
27301.56173
27302.27268
27302.90663
27303.47051
27303.97091
27304.41403
27304.80565
27305.15108
27305.45519
27305.72241
27305.95676
27306.16185
27306.34093
27306.49687
27306.63226
27306.74935
27306.85016
27306.93643
27307.00967
27307.07118
27307.12207
27307.16327
27307.19551
27307.21939
27307.23536
27307.2437
0.001159237802
0.00336397051
0.005416277636
0.007207852755
0.008645480977
0.009651872499
0.0102166382
0.009753308588
27276.11184
27278.46572
27280.78398
27283.04578
27285.22728
27287.30866
27289.27467
27291.1147
27292.82256
27294.39597
27295.83593
27297.14605
27298.33191
27299.40044
27300.35944
27301.21714
27301.98189
27302.66191
27303.26514
27303.79908
27304.27077
27304.68668
27305.05279
27305.37453
27305.6568
27305.90403
27306.1202
27306.30884
27306.47312
27306.61582
27306.73944
27306.84613
27306.9378
27307.01611
27307.08249
27307.13817
27307.18419
27307.22141
27307.25053
27307.27211
27307.28656
27307.29414
0.001392895693
0.004047574657
0.006524386572
0.008695995053
0.01044753256
0.01167999732
0.01237443795
0.01180199253
27276.11394
27278.59892
27281.04142
27283.41625
27285.69566
27287.85731
27289.8848
27291.76768
27293.50088
27295.08395
27296.52013
27297.81544
27298.97783
27300.01644
27300.94105
27301.76157
27302.48777
27303.129
27303.69405
27304.19109
27304.6276
27305.0104
27305.34562
27305.63878
27305.89483
27306.11813
27306.3126
27306.48167
27306.62838
27306.75541
27306.8651
27306.95951
27307.0404
27307.10934
27307.16766
27307.21648
27307.25677
27307.28932
27307.31478
27307.33366
27307.34632
27307.35302
0.001683402275
0.004902470352
0.007916997894
0.01057778191
0.0127406228
0.01427415522
0.01514158383
0.01444090299
27276.11854
27278.76813
27281.36667
27283.88231
27286.28205
27288.54041
27290.63994
27292.5708
27294.32986
27295.91941
27297.34586
27298.61848
27299.7483
27300.74729
27301.62763
27302.40129
27303.07965
27303.67333
27304.1921
27304.64479
27305.03937
27305.38294
27305.6818
27305.9415
27306.16697
27306.36249
27306.53185
27306.67834
27306.80485
27306.91388
27307.00762
27307.08798
27307.15657
27307.21483
27307.26396
27307.30498
27307.33876
27307.36601
27307.38731
27307.40311
27307.41375
27307.41944
0.002036095833
0.005949312398
0.009634934575
0.01292072024
0.01562286636
0.01756017215
0.01865670631
0.01780715744
27276.12544
27278.98139
27281.77492
27284.46445
27287.01005
27289.38266
27291.56411
27293.54617
27295.32886
27296.91857
27298.32609
27299.56502
27300.65039
27301.59762
27302.42182
27303.13728
27303.75722
27304.29366
27304.75733
27305.15777
27305.50337
27305.80146
27306.05842
27306.27981
27306.47043
27306.63443
27306.77541
27306.89647
27307.00029
27307.08917
27307.1651
27307.22978
27307.28469
27307.33108
27307.37
27307.40237
27307.42894
27307.45032
27307.46702
27307.47943
27307.48783
27307.4924
0.0024532
0.007202864594
0.01171481714
0.0157966284
0.01921200834
0.02170007625
0.02309527845
0.02206918278
27276.12989
27279.24932
27282.28726
27285.19066
27287.91128
27290.41636
27292.68803
27294.72133
27296.52138
27298.10049
27299.47556
27300.66586
27301.69141
27302.57184
27303.32564
27303.96974
27304.51932
27304.98781
27305.38691
27305.72677
27306.01609
27306.26235
27306.47192
27306.65023
27306.80188
27306.93081
27307.04035
27307.13334
27307.21219
27307.27895
27307.33538
27307.38296
27307.42295
27307.45641
27307.48425
27307.50723
27307.52598
27307.541
27307.55271
27307.56144
27307.56742
27307.57079
0.002930315542
0.008662719606
0.01417659461
0.01927103576
0.02364444479
0.02690362234
0.02867636464
0.0275639886
27276.13348
27279.5897
27282.93422
27286.09977
27289.02824
27291.68373
27294.0507
27296.13019
27297.93534
27299.48705
27300.81047
27301.93217
27302.87835
27303.67355
27304.34008
27304.89768
27305.36354
27305.75242
27306.07687
27306.34746
27306.5731
27306.76121
27306.918
27307.04864
27307.15744
27307.24799
27307.32329
27307.38582
27307.43768
27307.48061
27307.51608
27307.54531
27307.56933
27307.58899
27307.60501
27307.61798
27307.6284
27307.63666
27307.64308
27307.6479
27307.6513
27307.6534
0.003451136076
0.01029778066
0.01700053173
0.02338016608
0.02906745409
0.03344079626
0.03567709167
0.03490543069
27276.14081
27280.03025
27283.76018
27287.24607
27290.41837
27293.23988
27295.70118
27297.81383
27299.60324
27301.10252
27302.34775
27303.37475
27304.21705
27304.90479
27305.46436
27305.91834
27306.28577
27306.58255
27306.82179
27307.01429
27307.16884
27307.29264
27307.39152
27307.47023
27307.53263
27307.58185
27307.62043
27307.65046
27307.67361
27307.69128
27307.70459
27307.71447
27307.72168
27307.72684
27307.73046
27307.73295
27307.73466
27307.73585
27307.73674
27307.73748
27307.73819
27307.73896
0.003980205298
0.01202178919
0.02008625985
0.02808335329
0.0356118835
0.04163613475
0.04448639952
0.0453036286
27276.15912
27280.61349
27284.83018
27288.706
27292.15943
27295.15647
27297.70066
27299.82115
27301.5618
27302.97262
27304.10393
27305.00278
27305.7111
27306.26508
27306.69515
27307.02651
27307.27969
27307.47128
27307.6146
27307.72022
27307.79656
27307.85025
27307.88652
27307.90949
27307.92239
27307.92776
27307.92759
27307.92344
27307.91654
27307.90784
27307.89809
27307.88788
27307.87768
27307.86785
27307.85867
27307.85037
27307.84311
27307.83702
27307.83222
27307.82877
27307.82673
27307.82613
0.004454091477
0.01365690469
0.02318213708
0.03317051023
0.04331320632
0.05178070561
0.05576858932
0.06140260026
27276.19864
27281.40572
27286.24103
27290.58827
27294.35698
27297.52613
27300.12416
27302.20875
27303.85073
27305.12287
27306.09327
27306.82208
27307.36032
27307.75014
27308.02559
27308.21383
27308.33621
27308.40938
27308.44622
27308.45662
27308.44815
27308.42654
27308.39612
27308.36015
27308.32106
27308.28063
27308.24018
27308.20067
27308.16278
27308.12698
27308.09361
27308.06288
27308.03493
27308.00984
27307.98766
27307.96839
27307.95205
27307.9386
27307.92804
27307.92036
27307.91553
27307.91354
0.004772089495
0.0148825101
0.0257677231
0.03808610515
0.05184232884
0.06370350794
0.0705759905
0.08903946115
27276.29047
27282.51572
27288.13995
27293.04895
27297.1541
27300.46713
27303.06143
27305.03944
27306.51006
27307.57548
27308.32492
27308.83272
27309.1588
27309.35043
27309.44418
27309.468
27309.44298
27309.38489
27309.30541
27309.21308
27309.1141
27309.01289
27308.91258
27308.81529
27308.72244
27308.63493
27308.55329
27308.47777
27308.40843
27308.34524
27308.28805
27308.23668
27308.19092
27308.15056
27308.11537
27308.08516
27308.05975
27308.03897
27308.02269
27308.01078
27308.00318
27307.99982
0.004789813381
0.01517843163
0.02688941738
0.04157046997
0.05951374607
0.07496923192
0.088754913
0.1377184823
27276.50322
27284.12411
27290.75422
27296.3132
27300.74331
27304.12704
27306.61538
27308.37803
27309.57518
27310.34475
27310.79897
27311.02585
27311.09258
27311.04949
27310.93365
27310.77199
27310.58385
27310.38288
27310.17857
27309.97735
27309.78348
27309.59962
27309.42732
27309.26732
27309.11986
27308.98479
27308.86173
27308.75015
27308.64947
27308.55904
27308.47824
27308.40646
27308.34313
27308.28772
27308.23975
27308.1988
27308.1645
27308.13653
27308.11463
27308.09861
27308.08829
27308.08358
0.004319762464
0.01381483313
0.02506775961
0.04110335174
0.06127104807
0.07623400514
0.1018139796
0.2123881811
27277.01636
27286.53985
27294.44009
27300.70585
27305.37883
27308.68261
27310.89546
27312.28269
27313.06856
27313.43008
27313.50112
27313.37993
27313.13705
27312.8222
27312.46986
27312.10346
27311.73859
27311.3853
27311.04976
27310.73546
27310.44408
27310.17606
27309.93105
27309.70817
27309.50628
27309.32405
27309.16012
27309.01313
27308.88175
27308.76475
27308.66098
27308.56939
27308.48903
27308.41907
27308.35876
27308.30745
27308.26458
27308.22969
27308.2024
27308.18241
27308.16949
27308.16349
0.00315705167
0.009961605835
0.0184023607
0.03263565721
0.04832346054
0.04804255306
0.08131397565
0.2890630713
27278.07785
27290.28345
27299.7615
27306.69061
27311.38356
27314.32951
27316.00176
27316.78943
27316.98702
27316.80668
27316.39631
27315.85653
27315.25433
27314.63331
27314.02107
27313.43438
27312.88278
27312.37104
27311.90082
27311.47183
27311.08254
27310.73076
27310.41394
27310.12938
27309.87441
27309.64644
27309.44304
27309.26197
27309.10117
27308.95877
27308.8331
27308.72267
27308.62615
27308.5424
27308.47041
27308.40931
27308.35836
27308.31694
27308.28457
27308.26084
27308.24546
27308.23825
0.001194298671
0.003062632521
0.005324200657
0.01153350179
0.01262293458
-0.02608710171
-0.01276391883
0.2961029071
27280.08656
27296.33505
27307.63376
27314.91087
27319.13565
27321.25086
27321.99351
27321.88714
27321.28427
27320.41413
27319.42174
27318.39641
27317.39131
27316.43655
27315.54767
27314.73119
27313.98815
27313.31634
27312.7118
27312.16965
27311.6847
27311.25176
27310.86586
27310.52234
27310.21691
27309.94566
27309.70509
27309.49203
27309.3037
27309.1376
27308.99155
27308.86361
27308.75212
27308.65561
27308.57282
27308.50267
27308.44426
27308.39684
27308.35978
27308.33261
27308.31497
27308.30664
-0.001797273211
-0.006669234042
-0.01328077032
-0.02202527163
-0.0418713773
-0.1233813742
-0.174664361
0.1555153548
27285.02872
27306.82206
27319.53129
27326.18382
27328.99856
27329.54617
27328.83553
27327.48242
27325.84975
27324.14471
27322.48095
27320.91688
27319.47881
27318.1748
27317.0028
27315.95555
27315.02329
27314.19545
27313.4615
27312.81144
27312.23606
27311.72699
27311.27671
27310.87856
27310.5266
27310.21563
27309.94106
27309.69886
27309.4855
27309.29793
27309.13344
27308.98971
27308.86471
27308.75672
27308.66422
27308.58596
27308.52087
27308.46805
27308.42679
27308.39654
27308.37688
27308.36755
-0.006015924462
-0.01796809779
-0.03360255188
-0.05721259601
-0.09670150542
-0.1906169786
-0.3089301085
-0.1096350304
27299.54225
27325.8814
27337.49355
27341.29794
27341.13164
27339.10197
27336.32169
27333.35849
27330.48858
27327.83489
27325.44131
27323.31217
27321.4331
27319.78189
27318.33412
27317.06588
27315.95504
27314.98174
27314.12841
27313.37972
27312.72233
27312.14467
27311.63674
27311.18991
27310.79669
27310.45062
27310.1461
27309.87831
27309.64305
27309.4367
27309.25614
27309.09865
27308.96192
27308.84395
27308.74304
27308.65775
27308.58686
27308.52938
27308.48449
27308.45158
27308.43017
27308.41997
-0.0109768065
-0.02879522425
-0.05114798458
-0.0826474301
-0.1304647198
-0.2094291022
-0.3357545545
-0.3460303749
27338.36876
27359.33813
27363.28095
27360.39142
27355.13325
27349.41141
27343.99259
27339.14251
27334.91212
27331.26575
27328.13797
27325.45817
27323.16032
27321.18639
27319.48679
27318.01975
27316.75026
27315.6491
27314.6918
27313.85787
27313.13006
27312.49386
27311.93698
27311.44898
27311.021
27310.64546
27310.31588
27310.02671
27309.77319
27309.55123
27309.35732
27309.18843
27309.04198
27308.91576
27308.8079
27308.71679
27308.64112
27308.57979
27308.53191
27308.4968
27308.47395
27308.46304
-0.01578987735
-0.03748335175
-0.063432957
-0.09690439744
-0.1420430477
-0.2059429713
-0.2857386529
-0.4849361671
27417.20321
27409.85908
27395.9281
27381.86633
27369.60439
27359.42063
27351.0962
27344.30776
27338.75234
27334.17863
27330.38732
27327.22289
27324.56437
27322.31737
27320.40779
27318.77699
27317.37816
27316.17365
27315.13293
27314.23103
27313.4474
27312.76499
27312.16962
27311.64938
27311.19425
27310.79575
27310.44669
27310.14094
27309.87329
27309.63926
27309.43504
27309.25735
27309.10342
27308.97085
27308.85763
27308.76206
27308.68271
27308.61842
27308.56825
27308.53145
27308.5075
27308.49604
-0.01953550748
-0.04335104464
-0.07072895029
-0.1042448251
-0.143611371
-0.2044502353
-0.2331580777
-0.5415371498
27524.49608
27467.4306
27428.72367
27401.54977
27382.00006
27367.57139
27356.66414
27348.24019
27341.61113
27336.3095
27332.01029
27328.4823
27325.55759
27323.11171
27321.05087
27319.30316
27317.8127
27316.53546
27315.43634
27314.48708
27313.6647
27312.95034
27312.32842
27311.786
27311.31224
27310.89801
27310.53563
27310.21857
27309.94127
27309.69902
27309.48778
27309.30412
27309.14509
27309.00821
27308.89136
27308.79276
27308.71093
27308.64463
27308.5929
27308.55496
27308.53026
27308.51843
-0.02156561474
-0.04627861495
-0.07407709688
-0.1073992975
-0.1430167394
-0.2032387376
-0.1973984156
-0.5515998986
27606.22674
27507.50146
27449.96409
27413.6023
27389.27056
27372.19832
27359.74748
27350.37713
27343.14232
27337.43811
27332.86239
27329.13897
27326.07259
27323.52176
27321.38163
27319.573
27318.035
27316.72018
27315.59098
27314.61741
27313.77517
27313.04448
27312.40902
27311.8553
27311.37206
27310.94985
27310.5807
27310.2579
27309.97572
27309.72931
27309.51452
27309.32783
27309.16623
27309.02717
27308.90849
27308.80836
27308.72527
27308.65796
27308.60544
27308.56693
27308.54185
27308.52983
-0.02156561822
-0.04627861994
-0.07407710165
-0.1073992978
-0.143016749
-0.203238727
-0.1973985372
-0.5515815519
27606.22929
27507.50359
27449.96571
27413.60345
27389.27132
27372.19882
27359.74779
27350.37733
27343.14245
27337.43821
27332.86247
27329.13904
27326.07266
27323.52184
27321.38172
27319.57309
27318.0351
27316.72028
27315.5911
27314.61754
27313.77531
27313.04462
27312.40917
27311.85546
27311.37223
27310.95002
27310.58089
27310.25809
27309.97591
27309.72951
27309.51472
27309.32804
27309.16644
27309.02739
27308.90871
27308.80858
27308.72549
27308.65819
27308.60567
27308.56716
27308.54208
27308.53006
-0.01953551881
-0.04335106062
-0.07072896314
-0.1042448199
-0.1436113358
-0.2044501112
-0.233158011
-0.5414807641
27524.50374
27467.43708
27428.72851
27401.55311
27382.00226
27367.5728
27356.66503
27348.24075
27341.6115
27336.30978
27332.01052
27328.48251
27325.5578
27323.11194
27321.05112
27319.30344
27317.813
27316.53579
27315.4367
27314.48747
27313.66511
27312.95077
27312.32888
27311.78648
27311.31274
27310.89854
27310.53618
27310.21913
27309.94185
27309.69962
27309.48839
27309.30474
27309.14573
27309.00886
27308.89202
27308.79343
27308.7116
27308.64531
27308.59358
27308.55565
27308.53095
27308.51912
-0.01578989791
-0.03748338266
-0.06343298493
-0.09690438583
-0.1420428987
-0.2059425294
-0.2857374769
-0.484829704
27417.21768
27409.87037
27395.93601
27381.87152
27369.60766
27359.42266
27351.09746
27344.30855
27338.75287
27334.17903
27330.38766
27327.22322
27324.56471
27322.31774
27320.4082
27318.77744
27317.37866
27316.1742
27315.13353
27314.23167
27313.44808
27312.76572
27312.17038
27311.65018
27311.19509
27310.79662
27310.4476
27310.14188
27309.87426
27309.64025
27309.43605
27309.25839
27309.10448
27308.97193
27308.85872
27308.76317
27308.68384
27308.61956
27308.56939
27308.5326
27308.50865
27308.49719
-0.01097683402
-0.02879527402
-0.05114805062
-0.08264747211
-0.1304646207
-0.2094283427
-0.3357524139
-0.3458711355
27338.39125
27359.35439
27363.29128
27360.39766
27355.13694
27349.41359
27343.9939
27339.14334
27334.91269
27331.26619
27328.13838
27325.45858
27323.16077
27321.1869
27319.48736
27318.02038
27316.75096
27315.64987
27314.69263
27313.85876
27313.13102
27312.49488
27311.93805
27311.45011
27311.02218
27310.64668
27310.31715
27310.02802
27309.77455
27309.55262
27309.35874
27309.18988
27309.04346
27308.91727
27308.80943
27308.71835
27308.64269
27308.58137
27308.53351
27308.49841
27308.47556
27308.46465
-0.006015950012
-0.01796815665
-0.03360265761
-0.0572127837
-0.09670176577
-0.1906168628
-0.3089298258
-0.1093703822
27299.58146
27325.90239
27337.50447
27341.30367
27341.13472
27339.10367
27336.32267
27333.35911
27330.48904
27327.83529
27325.44173
27323.31264
27321.43364
27319.78252
27318.33483
27317.06668
27315.95594
27314.98272
27314.12948
27313.38088
27312.72356
27312.14598
27311.63812
27311.19136
27310.7982
27310.45219
27310.14774
27309.88
27309.64479
27309.43849
27309.25797
27309.10053
27308.96384
27308.8459
27308.74502
27308.65975
27308.58889
27308.53142
27308.48655
27308.45365
27308.43225
27308.42205
-0.001797286191
-0.00666927321
-0.01328085553
-0.02202549155
-0.04187184972
-0.1233823142
-0.1746662038
0.1558957501
27285.08177
27306.83975
27319.5379
27326.18652
27328.99974
27329.54671
27328.83583
27327.48264
27325.84998
27324.14501
27322.48135
27320.91739
27319.47944
27318.17554
27317.00367
27315.95653
27315.02439
27314.19666
27313.46281
27312.81286
27312.23757
27311.72859
27311.27841
27310.88033
27310.52846
27310.21756
27309.94306
27309.70093
27309.48764
27309.30012
27309.13568
27308.992
27308.86706
27308.7591
27308.66664
27308.58842
27308.52335
27308.47055
27308.42931
27308.39908
27308.37943
27308.3701
0.001194299314
0.003062632438
0.005324193946
0.01153349745
0.01262286694
-0.02608782022
-0.0127649486
0.2959603066
27280.06373
27296.32523
27307.62883
27314.90814
27319.13402
27321.24988
27321.99294
27321.88686
27321.28423
27320.4143
27319.4221
27318.39694
27317.39201
27316.43741
27315.54869
27314.73235
27313.98944
27313.31777
27312.71335
27312.17133
27311.68649
27311.25367
27310.86787
27310.52445
27310.21911
27309.94795
27309.70746
27309.49449
27309.30623
27309.1402
27308.99421
27308.86633
27308.75489
27308.65843
27308.57568
27308.50558
27308.4472
27308.3998
27308.36277
27308.33561
27308.31799
27308.30966
0.003157061759
0.009961638418
0.01840242251
0.03263578404
0.048323677
0.04804272939
0.08131432747
0.2885744668
27278.00865
27290.25422
27299.74776
27306.68351
27311.37962
27314.32722
27316.00043
27316.78872
27316.98674
27316.80673
27316.39664
27315.85711
27315.25512
27314.6343
27314.02224
27313.43572
27312.88428
27312.3727
27311.90263
27311.47377
27311.08462
27310.73297
27310.41626
27310.13182
27309.87695
27309.64909
27309.44579
27309.26481
27309.10409
27308.96177
27308.83618
27308.72581
27308.62936
27308.54567
27308.47373
27308.41267
27308.36176
27308.32038
27308.28803
27308.26431
27308.24895
27308.24174
0.004319778076
0.01381488361
0.02506785334
0.04110351266
0.06127129808
0.07623433097
0.1018143092
0.2120502458
27276.9719
27286.51556
27294.42644
27300.69791
27305.37407
27308.67971
27310.89371
27312.28172
27313.06814
27313.43008
27313.50147
27313.38056
27313.13794
27312.82332
27312.47119
27312.10499
27311.7403
27311.38719
27311.05181
27310.73768
27310.44645
27310.17857
27309.93369
27309.71095
27309.50918
27309.32707
27309.16325
27309.01636
27308.88508
27308.76817
27308.66448
27308.57297
27308.49268
27308.42278
27308.36253
27308.31127
27308.26844
27308.23359
27308.20633
27308.18636
27308.17345
27308.16746
0.004789831156
0.01517848842
0.02688951969
0.04157063064
0.05951397639
0.07496952518
0.08875526304
0.1376991311
27276.50074
27284.11425
27290.74559
27296.30695
27300.73904
27304.12423
27306.6136
27308.37702
27309.57475
27310.34477
27310.79937
27311.02658
27311.0936
27311.05076
27310.93515
27310.77372
27310.58579
27310.38501
27310.18088
27309.97985
27309.78615
27309.60244
27309.43029
27309.27044
27309.12311
27308.98817
27308.86523
27308.75377
27308.65319
27308.56287
27308.48217
27308.41048
27308.34722
27308.29188
27308.24398
27308.20308
27308.16883
27308.1409
27308.11904
27308.10304
27308.09274
27308.08804
0.004772107362
0.01488256621
0.02576782152
0.03808625184
0.05184252724
0.0637037561
0.07057628406
0.08903955105
27276.29044
27282.5117
27288.13516
27293.04476
27297.15086
27300.46482
27303.05991
27305.03858
27306.50973
27307.57561
27308.32544
27308.83358
27309.15997
27309.35187
27309.44588
27309.46994
27309.44515
27309.38727
27309.30799
27309.21585
27309.11706
27309.01603
27308.91588
27308.81875
27308.72605
27308.63869
27308.55718
27308.48178
27308.41257
27308.34949
27308.29241
27308.24113
27308.19546
27308.15518
27308.12006
27308.08992
27308.06456
27308.04382
27308.02758
27308.0157
27308.00811
27308.00476
0.004454108323
0.01365695656
0.02318222597
0.03317063839
0.0433133734
0.05178090898
0.05576882357
0.06140280742
27276.19864
27281.40434
27286.2387
27290.58578
27294.3548
27297.52446
27300.12303
27302.20815
27303.8506
27305.12316
27306.09395
27306.8231
27307.36166
27307.75177
27308.0275
27308.216
27308.33862
27308.41202
27308.44908
27308.45969
27308.45141
27308.42999
27308.39976
27308.36396
27308.32503
27308.28476
27308.24446
27308.20509
27308.16733
27308.13165
27308.09839
27308.06777
27308.03992
27308.01492
27307.99281
27307.97362
27307.95733
27307.94394
27307.93342
27307.92577
27307.92096
27307.91898
0.003980220516
0.0120218353
0.02008633749
0.02808346301
0.03561202451
0.04163630373
0.04448659326
0.04533017077
27276.16271
27280.61433
27284.82951
27288.70473
27292.15811
27295.15539
27297.69995
27299.82085
27301.56191
27302.97313
27304.1048
27305.00399
27305.71264
27306.26692
27306.69728
27307.0289
27307.28234
27307.47419
27307.61773
27307.72358
27307.80014
27307.85403
27307.89049
27307.91365
27307.92673
27307.93227
27307.93226
27307.92827
27307.9215
27307.91293
27307.90331
27307.89322
27307.88313
27307.87339
27307.8643
27307.85607
27307.84888
27307.84285
27307.83809
27307.83468
27307.83266
27307.83206
0.003451149348
0.0102978205
0.01700059802
0.02338025851
0.02906757207
0.03344093725
0.03567725077
0.03494906619
27276.14671
27280.03208
27283.76027
27287.24547
27290.41763
27293.23927
27295.70084
27297.81383
27299.60361
27301.10325
27302.34883
27303.37618
27304.2188
27304.90685
27305.46672
27305.92098
27306.28869
27306.58572
27306.82522
27307.01795
27307.17273
27307.29675
27307.39584
27307.47476
27307.53735
27307.58675
27307.6255
27307.65569
27307.679
27307.69681
27307.71025
27307.72026
27307.72758
27307.73285
27307.73656
27307.73914
27307.74092
27307.74217
27307.74311
27307.74389
27307.74463
27307.7454
0.00293032679
0.008662753177
0.01417664996
0.01927111184
0.02364454003
0.0269037339
0.02867648613
0.02758013115
27276.13562
27279.59018
27282.93401
27286.09931
27289.02779
27291.68344
27294.05066
27296.13047
27297.93596
27299.48802
27300.81178
27301.93382
27302.88032
27303.67584
27304.34268
27304.90058
27305.36672
27305.75588
27306.08058
27306.35143
27306.57731
27306.76565
27306.92267
27307.05352
27307.16253
27307.25328
27307.32876
27307.39146
27307.44349
27307.48658
27307.5222
27307.55156
27307.5757
27307.59548
27307.6116
27307.62467
27307.63516
27307.64349
27307.64996
27307.65482
27307.65825
27307.66036
0.002453209373
0.007202892418
0.01171486259
0.01579668983
0.01921208281
0.02170015926
0.0230953644
0.02203749521
27276.12554
27279.24751
27282.28631
27285.19008
27287.91095
27290.41629
27292.68825
27294.72186
27296.52224
27298.10169
27299.4771
27300.66774
27301.69362
27302.57438
27303.32849
27303.97289
27304.52277
27304.99155
27305.39093
27305.73105
27306.02063
27306.26714
27306.47695
27306.65548
27306.80735
27306.93649
27307.04623
27307.1394
27307.21843
27307.28536
27307.34195
27307.38967
27307.42979
27307.46338
27307.49133
27307.51441
27307.53324
27307.54834
27307.56011
27307.56888
27307.57488
27307.57827
0.002036103621
0.005949335391
0.009634971891
0.01292077015
0.01562292592
0.01756023693
0.01865677263
0.01776798562
27276.12011
27278.97896
27281.77372
27284.46386
27287.00986
27289.38279
27291.56455
27293.54693
27295.32996
27296.92
27298.32786
27299.56714
27300.65284
27301.6004
27302.42492
27303.1407
27303.76095
27304.29768
27304.76165
27305.16237
27305.50824
27305.80659
27306.0638
27306.28543
27306.47628
27306.64051
27306.7817
27306.90296
27307.00697
27307.09603
27307.17212
27307.23696
27307.29202
27307.33853
27307.37758
27307.41006
27307.43671
27307.45818
27307.47494
27307.4874
27307.49583
27307.50042
0.001683408789
0.004902489496
0.007917028889
0.01057782337
0.01274067281
0.01427421125
0.01514164331
0.01442683693
27276.11664
27278.76672
27281.36583
27283.88194
27286.28205
27288.54075
27290.64059
27292.57178
27294.33118
27295.92107
27297.34787
27298.62082
27299.75099
27300.75031
27301.631
27302.40498
27303.08366
27303.67766
27304.19672
27304.64971
27305.04458
27305.38842
27305.68754
27305.94751
27306.17321
27306.36897
27306.53855
27306.68526
27306.81196
27306.92119
27307.01511
27307.09563
27307.16438
27307.22278
27307.27203
27307.31317
27307.34705
27307.37439
27307.39576
27307.41162
27307.4223
27307.428
0.001392901181
0.004047590728
0.006524412569
0.008696029911
0.01044757496
0.01168004595
0.01237449137
0.01180206148
27276.11394
27278.59845
27281.04107
27283.41617
27285.69589
27287.85785
27289.88567
27291.76888
27293.50242
27295.08583
27296.52236
27297.81802
27298.98075
27300.01971
27300.94467
27301.76553
27302.49207
27303.13362
27303.69899
27304.19634
27304.63315
27305.01623
27305.35173
27305.64517
27305.90147
27306.12502
27306.31972
27306.48902
27306.63595
27306.76318
27306.87306
27306.96764
27307.0487
27307.11779
27307.17624
27307.22519
27307.26559
27307.29824
27307.32378
27307.34272
27307.35542
27307.36214
0.001159242455
0.003363984102
0.005416299594
0.007207882181
0.008645516718
0.009651913234
0.01021668208
0.00975335729
27276.11184
27278.46561
27280.78395
27283.04596
27285.22773
27287.30941
27289.27573
27291.11609
27292.8243
27294.39805
27295.83837
27297.14885
27298.33507
27299.40397
27300.36332
27301.22137
27301.98646
27302.66683
27303.27039
27303.80466
27304.27665
27304.69287
27305.05928
27305.3813
27305.66384
27305.91133
27306.12775
27306.31663
27306.48113
27306.62405
27306.74786
27306.85474
27306.94659
27307.02506
27307.09159
27307.14741
27307.19354
27307.23087
27307.26008
27307.28173
27307.29623
27307.30383
0.0009761273081
0.002830343927
0.004554084654
0.006054686111
0.007254854878
0.008092184544
0.008560544413
0.008178450891
27276.11023
27278.36216
27280.58329
27282.75618
27284.8599
27286.87664
27288.79214
27290.59592
27292.28114
27293.84431
27295.28486
27296.60466
27297.8075
27298.89859
27299.88418
27300.77111
27301.5666
27302.2779
27302.9122
27303.47641
27303.97714
27304.42058
27304.81251
27305.15823
27305.46263
27305.73013
27305.96474
27306.17008
27306.34939
27306.50556
27306.64116
27306.75846
27306.85945
27306.94589
27307.01929
27307.08095
27307.13197
27307.17328
27307.20562
27307.22959
27307.24561
27307.25397
0.0008374994697
0.002427404294
0.003904427072
0.005188105804
0.006212673584
0.006925968091
0.007324000962
0.007000882334
27276.10903
27278.28376
27280.43099
27282.53576
27284.57932
27286.54541
27288.42065
27290.19476
27291.86055
27293.41376
27294.85276
27296.17815
27297.39244
27298.49956
27299.50457
27300.41327
27301.23192
27301.96704
27302.62519
27303.2128
27303.73611
27304.20106
27304.61323
27304.97783
27305.29969
27305.58322
27305.83245
27306.05104
27306.2423
27306.40917
27306.55431
27306.68005
27306.78847
27306.88138
27306.96036
27307.02677
27307.08177
27307.12633
27307.16122
27307.18707
27307.20434
27307.21332
0.0007381819099
0.002139248825
0.003440491502
0.004570333533
0.005471022386
0.006097272362
0.006446162497
0.006163946833
27276.10817
27278.22735
27280.32129
27282.37673
27284.37647
27286.30536
27288.15068
27289.90237
27291.55306
27293.09802
27294.5349
27295.86347
27297.08532
27298.20349
27299.22218
27300.14641
27300.98178
27301.73422
27302.40982
27303.01465
27303.55466
27304.03556
27304.46281
27304.84151
27305.17644