/*--------------------------------*- C++ -*----------------------------------*\
  =========                 |
  \\      /  F ield         | OpenFOAM: The Open Source CFD Toolbox
   \\    /   O peration     | Website:  https://openfoam.org
    \\  /    A nd           | Version:  6
     \\/     M anipulation  |
\*---------------------------------------------------------------------------*/
FoamFile
{
    version     2.0;
    format      ascii;
    class       surfaceScalarField;
    location    "0.01";
    object      phi;
}
// * * * * * * * * * * * * * * * * * * * * * * * * * * * * * * * * * * * * * //

dimensions      [0 3 -1 0 0 0 0];

internalField   nonuniform List<scalar> 
4900
(
-8.278390405e-10
-2.352889705e-11
-7.651231408e-10
-6.271590761e-11
-6.647417606e-10
-1.003814147e-10
-5.312270059e-10
-1.335148136e-10
-3.709337332e-10
-1.602933531e-10
-1.918128532e-10
-1.791209788e-10
-1.006202909e-11
-1.817509377e-10
6.270754315e-17
-1.006220858e-11
-2.0597003e-22
-5.506086956e-26
-2.041760694e-22
-1.793960647e-24
-2.006899119e-22
-3.490053172e-24
-1.956307309e-22
-5.067937954e-24
-1.891649407e-22
-6.479113914e-24
-1.814948842e-22
-7.687823602e-24
-1.728452223e-22
-8.671815864e-24
-1.634496533e-22
-9.422063353e-24
-1.535389858e-22
-9.941451559e-24
-1.433312907e-22
-1.024271077e-23
-1.330245229e-22
-1.034594967e-23
-1.227916723e-22
-1.027612582e-23
-1.127782499e-22
-1.006071129e-23
-1.031017479e-22
-9.727718177e-24
-9.385263691e-23
-9.304161763e-24
-8.509645362e-23
-8.814969902e-24
-7.687657167e-23
-8.282300241e-24
-6.921731223e-23
-7.725200033e-24
-6.21271279e-23
-7.159533128e-24
-5.560166641e-23
-6.598099996e-24
-4.962658725e-23
-6.05088493e-24
-4.418005805e-23
-5.525376249e-24
-3.923489933e-23
-5.026917872e-24
-3.476037641e-23
-4.559062211e-24
-3.072365705e-23
-4.123904352e-24
-2.70909657e-23
-3.722385496e-24
-2.382847107e-23
-3.354559609e-24
-2.090294544e-23
-3.019821577e-24
-1.828223326e-23
-2.717098048e-24
-1.593556317e-23
-2.445003844e-24
-1.383373412e-23
-2.201967878e-24
-1.194920182e-23
-1.986332855e-24
-1.025608725e-23
-1.796433138e-24
-8.730124687e-24
-1.630655177e-24
-7.348562182e-24
-1.487485119e-24
-6.090021272e-24
-1.365549482e-24
-4.934312533e-24
-1.263659329e-24
-3.862177655e-24
-1.180883734e-24
-2.854849132e-24
-1.116732168e-24
-1.893039639e-24
-1.071724772e-24
-9.539115859e-25
-1.049412087e-24
-1.064421044e-24
-8.714784305e-10
-4.798348807e-11
-8.058876339e-10
-1.283067662e-10
-7.004949509e-10
-2.057742041e-10
-5.600705979e-10
-2.739393105e-10
-3.912085977e-10
-3.291555289e-10
-2.022989667e-10
-3.680308105e-10
-1.02756696e-11
-3.737744459e-10
4.948027665e-17
-2.033808327e-11
-2.077242716e-22
-1.107656199e-25
-2.058718647e-22
-3.654142753e-24
-2.022675501e-22
-7.110659551e-24
-1.97041723e-22
-1.031844542e-23
-1.903735329e-22
-1.317996936e-23
-1.824788238e-22
-1.562303926e-23
-1.735954757e-22
-1.760342044e-23
-1.639690959e-22
-1.910435597e-23
-1.538403357e-22
-2.013367563e-23
-1.434346442e-22
-2.071929878e-23
-1.329548261e-22
-2.090396557e-23
-1.225763877e-22
-2.073991958e-23
-1.12445382e-22
-2.028407419e-23
-1.026783067e-22
-1.959398592e-23
-9.336354685e-23
-1.872477186e-23
-8.456387074e-23
-1.772696694e-23
-7.631954287e-23
-1.664522341e-23
-6.865170198e-23
-1.551770586e-23
-6.156573786e-23
-1.437601935e-23
-5.505448246e-23
-1.324551525e-23
-4.910109943e-23
-1.214583978e-23
-4.368161202e-23
-1.109161609e-23
-3.876704915e-23
-1.009317745e-23
-3.432521865e-23
-9.157293002e-24
-3.032213422e-23
-8.287848255e-24
-2.672313289e-23
-7.486457901e-24
-2.349372409e-23
-6.753000843e-24
-2.060021172e-23
-6.086075353e-24
-1.801012824e-23
-5.483377776e-24
-1.569251624e-23
-4.942011475e-24
-1.361808838e-23
-4.458734334e-24
-1.175929193e-23
-4.030153753e-24
-1.009029988e-23
-3.652877989e-24
-8.586946197e-24
-3.323632373e-24
-7.226619303e-24
-3.039348605e-24
-5.98812543e-24
-2.797235648e-24
-4.851533712e-24
-2.594842116e-24
-3.798028172e-24
-2.430122985e-24
-2.809859234e-24
-2.301522767e-24
-1.87079948e-24
-2.20804255e-24
-9.689356782e-25
-2.148926835e-24
-2.12060596e-24
-9.542371592e-10
-7.458695922e-11
-8.828517198e-10
-1.996922574e-10
-7.680691312e-10
-3.205568825e-10
-6.14735774e-10
-4.272727903e-10
-4.298079402e-10
-5.140835131e-10
-2.223383601e-10
-5.755005633e-10
-1.137477433e-11
-5.847382145e-10
4.65122732e-17
-3.171304283e-11
-2.113124926e-22
-1.726262341e-25
-2.093277938e-22
-5.645210187e-24
-2.054748607e-22
-1.097716507e-23
-1.999028957e-22
-1.591123203e-23
-1.928163885e-22
-2.029423739e-23
-1.844591254e-22
-2.401489585e-23
-1.750964521e-22
-2.700744615e-23
-1.649985548e-22
-2.925028531e-23
-1.544261707e-22
-3.076068109e-23
-1.436195694e-22
-3.158700865e-23
-1.327910614e-22
-3.179995592e-23
-1.221208267e-22
-3.148388607e-23
-1.117555661e-22
-3.072918134e-23
-1.018093425e-22
-2.962602657e-23
-9.236596286e-23
-2.825978525e-23
-8.348231627e-23
-2.670790178e-23
-7.519218216e-23
-2.50381299e-23
-6.751014158e-23
-2.330782524e-23
-6.043533184e-23
-2.15640298e-23
-5.395488036e-23
-1.984409869e-23
-4.804692802e-23
-1.81766591e-23
-4.26832081e-23
-1.658273687e-23
-3.783118522e-23
-1.507692952e-23
-3.34557832e-23
-1.366854319e-23
-2.952074457e-23
-1.236264138e-23
-2.598967018e-23
-1.116097765e-23
-2.282678845e-23
-1.0062801e-23
-1.999750101e-23
-9.065534569e-24
-1.746874702e-23
-8.16533562e-24
-1.520922337e-23
-7.357548647e-24
-1.318949198e-23
-6.637065572e-24
-1.138200084e-23
-5.998607161e-24
-9.761039872e-24
-5.436939342e-24
-8.302649311e-24
-4.947036962e-24
-6.984494813e-24
-4.524206289e-24
-5.78572228e-24
-4.164176155e-24
-4.686807288e-24
-3.863165735e-24
-3.669423311e-24
-3.617932422e-24
-2.716375425e-24
-3.425789359e-24
-1.81166592e-24
-3.284540051e-24
-9.405448707e-25
-3.192177613e-24
-3.146152711e-24
-1.082780563e-09
-1.043581262e-10
-1.002709402e-09
-2.79763469e-10
-8.736528566e-10
-4.496135149e-10
-7.00481966e-10
-6.004437984e-10
-4.905710573e-10
-7.239945653e-10
-2.539670655e-10
-8.121047194e-10
-1.294089232e-11
-8.257645608e-10
4.148428562e-17
-4.465410635e-11
-2.168548671e-22
-2.430331292e-25
-2.146587996e-22
-7.847546458e-24
-2.10408177e-22
-1.524111695e-23
-2.042853559e-22
-2.20545132e-23
-1.965367249e-22
-2.807016515e-23
-1.874515702e-22
-3.313408369e-23
-1.773393762e-22
-3.716033786e-23
-1.66509188e-22
-4.012775821e-23
-1.552528451e-22
-4.207080664e-23
-1.438329305e-22
-4.306710307e-23
-1.324754348e-22
-4.322391685e-23
-1.213665642e-22
-4.266538479e-23
-1.1065283e-22
-4.15215739e-23
-1.00443481e-22
-3.991992174e-23
-9.08144117e-23
-3.797913706e-23
-8.181282572e-23
-3.580534673e-23
-7.346210827e-23
-3.349011487e-23
-6.576652942e-23
-3.110990497e-23
-5.871554122e-23
-2.872657036e-23
-5.2287544e-23
-2.638851178e-23
-4.645307749e-23
-2.413221156e-23
-4.117744651e-23
-2.198392557e-23
-3.642282383e-23
-1.996137907e-23
-3.214989012e-23
-1.807536652e-23
-2.831907729e-23
-1.633119694e-23
-2.489148101e-23
-1.472995737e-23
-2.182950329e-23
-1.326958815e-23
-1.909727933e-23
-1.194577734e-23
-1.66609351e-23
-1.075268992e-23
-1.44887145e-23
-9.683551292e-24
-1.255100799e-23
-8.731105915e-24
-1.082030846e-23
-7.887971557e-24
-9.271114546e-24
-7.146907992e-24
-7.879797756e-24
-6.501017009e-24
-6.624446195e-24
-5.943888204e-24
-5.484696009e-24
-5.469702427e-24
-4.441560841e-24
-5.073301462e-24
-3.477269503e-24
-4.750227592e-24
-2.575116268e-24
-4.496728396e-24
-1.719290953e-24
-4.309711202e-24
-8.945130281e-25
-4.186637849e-24
-4.125470672e-24
-1.262756377e-09
-1.382698181e-10
-1.171141834e-09
-3.713780603e-10
-1.022832141e-09
-5.979232892e-10
-8.224042748e-10
-8.008717734e-10
-5.774988588e-10
-9.689001124e-10
-2.993854181e-10
-1.090218309e-09
-1.515579283e-11
-1.109994341e-09
3.156383575e-17
-5.981004268e-11
-2.245578105e-22
-3.255015165e-25
-2.220509969e-22
-1.036062457e-23
-2.172205067e-22
-2.008492041e-23
-2.103002531e-22
-2.899520131e-23
-2.016002225e-22
-3.67974596e-23
-1.914777208e-22
-4.32905785e-23
-1.803069657e-22
-4.837174402e-23
-1.684526171e-22
-5.202933812e-23
-1.562496674e-22
-5.432747881e-23
-1.439903528e-22
-5.538653076e-23
-1.319175404e-22
-5.53631212e-23
-1.20223378e-22
-5.443209526e-23
-1.090517597e-22
-5.277176398e-23
-9.850321651e-23
-5.055291806e-23
-8.864107022e-23
-4.79314665e-23
-7.949796868e-23
-4.504420163e-23
-7.108220158e-23
-4.20070378e-23
-6.338343207e-23
-3.891505775e-23
-5.637766148e-23
-3.584376993e-23
-5.00313725e-23
-3.285108768e-23
-4.43048784e-23
-2.997965725e-23
-3.915495294e-23
-2.725926916e-23
-3.453683732e-23
-2.470917695e-23
-3.040572587e-23
-2.234021817e-23
-2.671782763e-23
-2.015668388e-23
-2.343109066e-23
-1.815791936e-23
-2.050566389e-23
-1.633966176e-23
-1.790415872e-23
-1.469513479e-23
-1.559176092e-23
-1.321592756e-23
-1.353623294e-23
-1.189268761e-23
-1.170783815e-23
-1.071565762e-23
-1.007921108e-23
-9.675083541e-24
-8.625192146e-24
-8.761518915e-24
-7.322640432e-24
-7.966046596e-24
-6.15023514e-24
-7.280435992e-24
-5.0882732e-24
-6.69725021e-24
-4.118468581e-24
-6.209914028e-24
-3.223755147e-24
-5.812749814e-24
-2.388086624e-24
-5.500985122e-24
-1.596207604e-24
-5.270736005e-24
-8.333417423e-25
-5.118984565e-24
-5.043614724e-24
-1.501518735e-09
-1.77112074e-10
-1.395818969e-09
-4.7707787e-10
-1.223476511e-09
-7.70265817e-10
-9.880006429e-10
-1.036347733e-09
-6.967084407e-10
-1.260192422e-09
-3.620810088e-10
-1.42484586e-09
-1.825702411e-11
-1.453818446e-09
1.710328927e-17
-7.806716523e-11
-2.347248356e-22
-4.25534391e-25
-2.317734072e-22
-1.331831977e-23
-2.261293463e-22
-2.574229801e-23
-2.181015259e-22
-3.704346155e-23
-2.080928377e-22
-4.683341843e-23
-1.965588296e-22
-5.485858821e-23
-1.839648743e-22
-6.100636053e-23
-1.707513479e-22
-6.529010728e-23
-1.573094872e-22
-6.78230749e-23
-1.439678004e-22
-6.878834485e-23
-1.309873885e-22
-6.840994028e-23
-1.18563884e-22
-6.692816424e-23
-1.06833678e-22
-6.458055881e-23
-9.588243548e-23
-6.158863162e-23
-8.575437354e-23
-5.814973014e-23
-7.646127092e-23
-5.443307673e-23
-6.799059165e-23
-5.057889254e-23
-6.031242813e-23
-4.669962462e-23
-5.338518827e-23
-4.288245925e-23
-4.71600881e-23
-3.919249555e-23
-4.158458468e-23
-3.567613328e-23
-3.660491386e-23
-3.236437933e-23
-3.216789957e-23
-2.927589484e-23
-2.822218837e-23
-2.641969095e-23
-2.471904222e-23
-2.379744014e-23
-2.161279985e-23
-2.140540811e-23
-1.886109568e-23
-1.923603405e-23
-1.642490565e-23
-1.727919827e-23
-1.426847314e-23
-1.55232209e-23
-1.235915513e-23
-1.395563473e-23
-1.066721776e-23
-1.256377238e-23
-9.165602748e-24
-1.133520364e-23
-7.829679482e-24
-1.025805391e-23
-6.636993375e-24
-9.321229826e-24
-5.567017128e-24
-8.514573368e-24
-4.600909188e-24
-7.82896187e-24
-3.721280974e-24
-7.256367131e-24
-2.911971415e-24
-6.78988397e-24
-2.157822708e-24
-6.423736569e-24
-1.444445787e-24
-6.153272008e-24
-7.579669277e-25
-5.974956751e-24
-5.886400465e-24
-1.808094722e-09
-2.212321753e-10
-1.68666114e-09
-5.985114866e-10
-1.486406932e-09
-9.705200768e-10
-1.208204891e-09
-1.314549838e-09
-8.575918296e-10
-1.610805556e-09
-4.476487211e-10
-1.834789045e-09
-2.283727107e-11
-1.878629969e-09
7.047314121e-19
-1.009044769e-10
-2.477900262e-22
-7.396080045e-25
-2.441949353e-22
-1.691968005e-23
-2.374286067e-22
-3.25219481e-23
-2.278902403e-22
-4.660227528e-23
-2.161174559e-22
-5.86334836e-23
-2.027066678e-22
-6.830339054e-23
-1.882491764e-22
-7.550452807e-23
-1.732852132e-22
-8.030133049e-23
-1.582758554e-22
-8.288618725e-23
-1.435905738e-22
-8.353377503e-23
-1.295067768e-22
-8.256016767e-23
-1.162173643e-22
-8.02901663e-23
-1.038427182e-22
-7.703382054e-23
-9.244436348e-23
-7.307148548e-23
-8.203840746e-23
-6.864591737e-23
-7.260763791e-23
-6.395964953e-23
-6.41117511e-23
-5.917598676e-23
-5.649558186e-23
-5.442223024e-23
-4.969545201e-23
-4.979407258e-23
-4.364387782e-23
-4.536041236e-23
-3.827292221e-23
-4.116809728e-23
-3.351647354e-23
-3.724630385e-23
-2.931170388e-23
-3.361040524e-23
-2.559991925e-23
-3.026527488e-23
-2.232697313e-23
-2.720803457e-23
-1.944337618e-23
-2.443029006e-23
-1.690420265e-23
-2.191991465e-23
-1.466886716e-23
-1.96624464e-23
-1.270082487e-23
-1.764216341e-23
-1.096723184e-23
-1.584289636e-23
-9.438590813e-24
-1.424863033e-23
-8.088398645e-24
-1.284394034e-23
-6.8928056e-24
-1.161429799e-23
-5.830292198e-24
-1.054627938e-23
-4.881366277e-24
-9.627699064e-24
-4.0282806e-24
-8.847689384e-24
-3.2547695e-24
-8.196740566e-24
-2.545801203e-24
-7.666713522e-24
-1.887340823e-24
-7.250835479e-24
-1.26611881e-24
-6.943688083e-24
-6.69404782e-25
-6.74119849e-24
-6.640642987e-24
-2.192707445e-09
-2.700692097e-10
-2.05588388e-09
-7.353350736e-10
-1.826187864e-09
-1.20021612e-09
-1.498946874e-09
-1.641790857e-09
-1.07479631e-09
-2.034956147e-09
-5.654122598e-10
-2.34417312e-09
-3.070388726e-11
-2.413338358e-09
-1.260385026e-17
-1.316083473e-10
-2.641927233e-22
-1.061572239e-24
-2.597935595e-22
-2.132511555e-23
-2.515063505e-22
-4.082248343e-23
-2.39919919e-22
-5.820916156e-23
-2.257868367e-22
-7.279385675e-23
-2.099081217e-22
-8.421613228e-23
-1.930469223e-22
-9.240641874e-23
-1.758714165e-22
-9.752411339e-23
-1.589249926e-22
-9.988638509e-23
-1.426185585e-22
-9.990037908e-23
-1.272382952e-22
-9.800688493e-23
-1.129623928e-22
-9.463868379e-23
-9.988157303e-23
-9.019328312e-23
-8.801978813e-23
-8.50177984e-23
-7.735294009e-23
-7.940302693e-23
-6.782459913e-23
-7.35838254e-23
-5.935846365e-23
-6.774336256e-23
-5.186776192e-23
-6.201940243e-23
-4.526202143e-23
-5.651133172e-23
-3.945170575e-23
-5.128710684e-23
-3.435120414e-23
-4.638964435e-23
-2.988059881e-23
-4.184242292e-23
-2.596655941e-23
-3.765422401e-23
-2.254263779e-23
-3.382303511e-23
-1.954916917e-23
-3.033919134e-23
-1.693292988e-23
-2.718785469e-23
-1.464665733e-23
-2.435093502e-23
-1.264850491e-23
-2.180855254e-23
-1.090147932e-23
-1.954013055e-23
-9.372890191e-24
-1.752519559e-23
-8.033829608e-24
-1.574394941e-23
-6.858690493e-24
-1.417766556e-23
-5.824727259e-24
-1.280895373e-23
-4.911658604e-24
-1.162192546e-23
-4.10130998e-24
-1.060228841e-23
-3.377291884e-24
-9.737389847e-24
-2.724709255e-24
-9.016225542e-24
-2.129896599e-24
-8.42942684e-24
-1.58017346e-24
-7.969235926e-24
-1.063615865e-24
-7.629477933e-24
-5.688425642e-25
-7.40553724e-24
-7.294342841e-24
-2.665684596e-09
-3.213778655e-10
-2.517744563e-09
-8.832751132e-10
-2.262154764e-09
-1.455805918e-09
-1.88366135e-09
-2.020284262e-09
-1.371785744e-09
-2.546831736e-09
-7.317859538e-10
-2.984172884e-09
-4.748468983e-11
-3.097639587e-09
-1.772670552e-17
-1.790929802e-10
-2.847465601e-22
-9.835721459e-25
-2.792856504e-22
-2.679229907e-23
-2.688896373e-22
-5.123182754e-23
-2.545028477e-22
-7.26164133e-23
-2.37208772e-22
-9.0115233e-23
-2.180991902e-22
-1.03359753e-22
-1.98166172e-22
-1.123801429e-22
-1.782356841e-22
-1.175018954e-22
-1.589411472e-22
-1.192347148e-22
-1.407271857e-22
-1.181745315e-22
-1.238720425e-22
-1.149285051e-22
-1.085186935e-22
-1.100646728e-22
-9.470751369e-23
-1.040831326e-22
-8.240616784e-23
-9.740370071e-23
-7.15346364e-23
-9.036484983e-23
-6.198481158e-23
-8.322951648e-23
-5.363499069e-23
-7.61944564e-23
-4.636002432e-23
-6.940087308e-23
-4.003800692e-23
-6.294490271e-23
-3.455435836e-23
-5.688717017e-23
-2.980402575e-23
-5.126105935e-23
-2.569239004e-23
-4.607961018e-23
-2.213532313e-23
-4.134110886e-23
-1.905872129e-23
-3.70335148e-23
-1.639774384e-23
-3.313789682e-23
-1.409591276e-23
-2.96310515e-23
-1.210417397e-23
-2.648746247e-23
-1.037998256e-23
-2.368073888e-23
-8.886447318e-24
-2.11846488e-23
-7.591552206e-24
-1.897384248e-23
-6.467460517e-24
-1.702434138e-23
-5.48990077e-24
-1.531385323e-23
-4.637628926e-24
-1.382195982e-23
-3.891959537e-24
-1.253021386e-23
-3.236357471e-24
-1.142217255e-23
-2.656081653e-24
-1.048338905e-23
-2.137872523e-24
-9.701377622e-24
-1.669675415e-24
-9.065564754e-24
-1.240392839e-24
-8.567235474e-24
-8.396601164e-25
-8.199482122e-24
-4.576406038e-25
-7.957161048e-24
-7.836860497e-24
-3.235279943e-09
-3.700338703e-10
-3.087602713e-09
-1.030952332e-09
-2.819554905e-09
-1.7238537e-09
-2.397177554e-09
-2.442661571e-09
-1.78719172e-09
-3.156817517e-09
-9.775067041e-10
-3.79385784e-09
-8.994760853e-11
-3.985198619e-09
-1.307818871e-17
-2.690405232e-10
-3.109581416e-22
-1.262664158e-24
-3.037189298e-22
-3.403778677e-23
-2.902701525e-22
-6.469394062e-23
-2.719998631e-22
-9.090717214e-23
-2.504534417e-22
-1.116889646e-22
-2.271211765e-22
-1.267260688e-22
-2.032904234e-22
-1.362516162e-22
-1.799714248e-22
-1.408682047e-22
-1.5788394e-22
-1.413760109e-22
-1.374839435e-22
-1.386347393e-22
-1.190106614e-22
-1.334682864e-22
-1.02539211e-22
-1.266087874e-22
-8.80297409e-23
-1.186712984e-22
-7.536860578e-23
-1.1014942e-22
-6.440026749e-23
-1.014235089e-22
-5.495044364e-23
-9.277523729e-23
-4.684187862e-23
-8.44043264e-23
-3.990435114e-23
-7.644493809e-23
-3.398043802e-23
-6.898040379e-23
-2.892831146e-23
-6.205574693e-23
-2.462256819e-23
-5.56879214e-23
-2.09538297e-23
-4.98739375e-23
-1.782763627e-23
-4.459715831e-23
-1.516298957e-23
-3.983207816e-23
-1.289077343e-23
-3.554788042e-23
-1.095219436e-23
-3.171103628e-23
-9.297321794e-24
-2.828716414e-23
-7.883768216e-24
-2.524232822e-23
-6.675523449e-24
-2.254391774e-23
-5.641941828e-24
-2.016121724e-23
-4.756872277e-24
-1.806575273e-23
-3.997916932e-24
-1.623147807e-23
-3.34580236e-24
-1.46348502e-23
-2.783847413e-24
-1.325482927e-23
-2.297512763e-24
-1.207283054e-23
-1.87401839e-24
-1.107264782e-23
-1.502016934e-24
-1.024036271e-23
-1.171312273e-24
-9.564250546e-24
-8.72614272e-25
-9.034690391e-24
-5.973223176e-25
-8.644085127e-24
-3.373316688e-25
-8.386795264e-24
-8.259088936e-24
-3.903679401e-09
-4.063821022e-10
-3.7795329e-09
-1.155098809e-09
-3.530280361e-09
-1.973106195e-09
-3.091273339e-09
-2.881668533e-09
-2.385860583e-09
-3.862230207e-09
-1.363719463e-09
-4.815998895e-09
-2.045410099e-10
-5.144377014e-09
-3.374579262e-18
-4.735814914e-10
-3.443812157e-22
-2.582333794e-24
-3.343674552e-22
-4.40578253e-23
-3.164785465e-22
-8.259618973e-23
-2.927801249e-22
-1.146260706e-22
-2.654916914e-22
-1.390047176e-22
-2.36649679e-22
-1.55602143e-22
-2.079109344e-22
-1.650310944e-22
-1.804834448e-22
-1.683430211e-22
-1.551467066e-22
-1.667665784e-22
-1.32321079e-22
-1.61520598e-22
-1.121541771e-22
-1.537017092e-22
-9.460414137e-23
-1.442315106e-22
-7.950972691e-23
-1.338444337e-22
-6.664407528e-23
-1.230996828e-22
-5.575297488e-23
-1.124049585e-22
-4.65801904e-23
-1.020439486e-22
-3.88828988e-23
-9.220295415e-23
-3.244003755e-23
-8.299436926e-23
-2.705586428e-23
-7.447619854e-23
-2.256047128e-23
-6.666762472e-23
-1.880850275e-23
-5.956104427e-23
-1.567692548e-23
-5.313114005e-23
-1.306240506e-23
-4.734157204e-23
-1.087862747e-23
-4.214981041e-23
-9.053760746e-24
-3.751055327e-23
-7.528155875e-24
-3.337808609e-23
-6.252326015e-24
-2.970786284e-23
-5.185207166e-24
-2.645752297e-23
-4.292683371e-24
-2.358750617e-23
-3.546349634e-24
-2.106138483e-23
-2.922482208e-24
-1.884600284e-23
-2.401185922e-24
-1.691148482e-23
-1.965690322e-24
-1.523116259e-23
-1.601769245e-24
-1.378145173e-23
-1.297261806e-24
-1.254170211e-23
-1.041675813e-24
-1.149403879e-23
-8.258576028e-25
-1.06232049e-23
-6.417148756e-25
-9.916414454e-24
-4.819813626e-25
-9.363220569e-24
-3.400141612e-25
-8.955402827e-24
-2.096161865e-25
-8.686875973e-24
-8.553621303e-24
-4.660169287e-09
-4.14324803e-10
-4.601077449e-09
-1.214190616e-09
-4.431676479e-09
-2.142507116e-09
-4.041185818e-09
-3.272159137e-09
-3.277407463e-09
-4.626008508e-09
-2.018670642e-09
-6.074735676e-09
-5.086946524e-10
-6.654352985e-09
3.930232875e-18
-9.822761507e-10
-3.871621933e-22
-6.208519347e-24
-3.728969114e-22
-5.832938753e-23
-3.485028439e-22
-1.07003602e-22
-3.171581424e-22
-1.459912561e-22
-2.820921238e-22
-1.740980651e-22
-2.460837852e-22
-1.916445539e-22
-2.112288833e-22
-1.999267425e-22
-1.789129757e-22
-2.007062703e-22
-1.499061008e-22
-1.958272999e-22
-1.245067071e-22
-1.869802419e-22
-1.026875782e-22
-1.755873796e-22
-8.421980538e-23
-1.627719934e-22
-6.876697433e-23
-1.493760098e-22
-5.595074157e-23
-1.360005524e-22
-4.53928782e-23
-1.230531984e-22
-3.673974693e-23
-1.107930354e-22
-2.967459828e-23
-9.936946901e-23
-2.392196088e-23
-8.885360785e-23
-1.924725322e-23
-7.926256008e-23
-1.545376674e-23
-7.057762944e-23
-1.237842039e-23
-6.275757937e-23
-9.887148998e-24
-5.574807204e-23
-7.870421374e-24
-4.94882291e-23
-6.239146233e-24
-4.39150771e-23
-4.921075205e-24
-3.896646796e-23
-3.857724967e-24
-3.45829194e-23
-3.00179222e-24
-3.070870304e-23
-2.315011793e-24
-2.729241834e-23
-1.766399504e-24
-2.428722248e-23
-1.330821185e-24
-2.165083666e-23
-9.878334637e-25
-1.934541308e-23
-7.207480784e-25
-1.733732064e-23
-5.158782311e-25
-1.559688924e-23
-3.619319999e-25
-1.409813933e-23
-2.495236973e-25
-1.281851444e-23
-1.707792462e-25
-1.173862798e-23
-1.190159402e-25
-1.084203174e-23
-8.848069411e-26
-1.01150102e-23
-7.413378979e-26
-9.546403206e-24
-7.146760668e-26
-9.127458319e-24
-7.635167432e-26
-8.8517132e-24
-8.71490801e-24
-5.470226952e-09
-3.698984652e-10
-5.542678141e-09
-1.141739397e-09
-5.559662073e-09
-2.125523148e-09
-5.349446108e-09
-3.48237507e-09
-4.647735137e-09
-5.327719462e-09
-3.220704196e-09
-7.501766625e-09
-1.270050071e-09
-8.60500715e-09
1.282069069e-17
-2.252326303e-09
-4.424615624e-22
-1.485106936e-23
-4.215624318e-22
-7.923480092e-23
-3.874846773e-22
-1.410947047e-22
-3.452665318e-22
-1.88229892e-22
-2.99644968e-22
-2.197469668e-22
-2.543746082e-22
-2.369489971e-22
-2.120174487e-22
-2.423246601e-22
-1.740422894e-22
-2.387287849e-22
-1.410660132e-22
-2.288574387e-22
-1.1311935e-22
-2.149871732e-22
-8.987631848e-23
-1.988969725e-22
-7.082676819e-23
-1.818942751e-22
-5.539351475e-23
-1.648880313e-22
-4.300465761e-23
-1.48474071e-22
-3.313344764e-23
-1.330148109e-22
-2.531652912e-23
-1.187059369e-22
-1.915882104e-23
-1.05628572e-22
-1.43308215e-23
-9.378823845e-23
-1.056212046e-23
-8.314294598e-23
-7.633450331e-24
-7.36228498e-23
-5.368614653e-24
-6.514363677e-23
-3.626997372e-24
-5.761538376e-23
-2.296964723e-24
-5.094822585e-23
-1.290245517e-24
-4.505582323e-23
-5.372534598e-25
-3.985733973e-23
1.674335863e-26
-3.527843591e-23
4.147221047e-25
-3.125162637e-23
6.90391324e-25
-2.771624006e-23
8.701718426e-25
-2.461814493e-23
9.747672557e-25
-2.190934378e-23
1.020404424e-24
-1.954751119e-23
1.019810679e-24
-1.749551588e-23
9.829822495e-25
-1.572095623e-23
9.177879344e-25
-1.419572501e-23
8.30443391e-25
-1.289561249e-23
7.258842224e-25
-1.1799952e-23
6.080603098e-25
-1.089130967e-23
4.801692073e-25
-1.015521772e-23
3.448427764e-25
-9.579950411e-24
2.042983949e-25
-9.156340919e-24
6.046393295e-26
-8.87763747e-24
-8.739397149e-24
-6.259481843e-09
-2.420881929e-10
-6.55787443e-09
-8.433467911e-10
-6.927856862e-09
-1.755540702e-09
-7.137959386e-09
-3.272272552e-09
-6.815597226e-09
-5.650081658e-09
-5.556667498e-09
-8.760696419e-09
-3.015853014e-09
-1.114582173e-08
5.284130338e-17
-5.268179517e-09
-5.152024534e-22
-3.566339136e-23
-4.834193631e-22
-1.110241765e-22
-4.346155521e-22
-1.899118671e-22
-3.767900027e-22
-2.460759368e-22
-3.168591958e-22
-2.797051191e-22
-2.597642599e-22
-2.940780272e-22
-2.084347842e-22
-2.936949055e-22
-1.641820989e-22
-2.830288384e-22
-1.272044659e-22
-2.658889491e-22
-9.703555708e-23
-2.452163668e-22
-7.287807623e-23
-2.23121033e-22
-5.3823445e-23
-2.010216577e-22
-3.898133105e-23
-1.798089348e-22
-2.754635692e-23
-1.599937296e-22
-1.882497143e-23
-1.418266235e-22
-1.223919135e-23
-1.253877258e-22
-7.31828175e-24
-1.106509035e-22
-3.685186724e-24
-9.752799272e-23
-1.04161103e-24
-8.589823579e-23
8.462034786e-25
-7.562724479e-23
2.160078851e-24
-6.657876503e-23
3.040583769e-24
-5.862161515e-23
3.595834149e-24
-5.163347314e-23
3.9086024e-24
-4.550265195e-23
4.041981171e-24
-4.012863239e-23
4.043850311e-24
-3.54218595e-23
3.950373773e-24
-3.130312967e-23
3.788721742e-24
-2.770277622e-23
3.579180473e-24
-2.455978163e-23
3.336781875e-24
-2.182089322e-23
3.072558569e-24
-1.943978536e-23
2.794508115e-24
-1.73762911e-23
2.508332142e-24
-1.559571246e-23
2.218001773e-24
-1.406821145e-23
1.926189337e-24
-1.276827943e-23
1.634597475e-24
-1.167428005e-23
1.344209742e-24
-1.076806037e-23
1.055481454e-24
-1.003462449e-23
7.684853659e-25
-9.461864208e-24
4.830236241e-25
-9.0403422e-24
1.987151041e-25
-8.763123498e-24
-8.625652097e-24
-6.892920448e-09
1.051060491e-12
-7.529048155e-09
-2.072190807e-10
-8.476963317e-09
-8.076255564e-10
-9.50697757e-09
-2.242258344e-09
-1.029180131e-08
-4.865258003e-09
-1.004470205e-08
-9.007795805e-09
-6.55072021e-09
-1.463980371e-08
1.640397887e-16
-1.18189001e-08
-6.121752677e-22
-8.14740455e-23
-5.623202992e-22
-1.608854327e-22
-4.907806639e-22
-2.61464857e-22
-4.104352553e-22
-3.26441846e-22
-3.312541507e-22
-3.589135746e-22
-2.594030518e-22
-3.659632296e-22
-1.977873798e-22
-3.553513585e-22
-1.470566214e-22
-3.338069774e-22
-1.065422237e-22
-3.064572379e-22
-7.494717674e-23
-2.768717139e-22
-5.078306696e-23
-2.473517394e-22
-3.261322657e-23
-2.192642679e-22
-1.91673545e-23
-1.933336163e-22
-9.379643757e-24
-1.698661462e-22
-2.385945915e-24
-1.48910771e-22
2.498062924e-24
-1.303677673e-22
5.805220871e-24
-1.140595085e-22
7.945228892e-24
-9.977468619e-23
9.23004783e-24
-8.729479605e-23
9.895326258e-24
-7.640913187e-23
1.011782834e-23
-6.692254905e-23
1.002927326e-23
-5.86588164e-23
9.727148087e-24
-5.146137549e-23
9.28306096e-24
-4.519265658e-23
8.749142321e-24
-3.973265956e-23
8.162921652e-24
-3.497722575e-23
7.551026341e-24
-3.083624716e-23
6.931977374e-24
-2.723194881e-23
6.318295985e-24
-2.409731195e-23
5.718086638e-24
-2.137466591e-23
5.13622292e-24
-1.901445335e-23
4.575233025e-24
-1.697416128e-23
4.035958192e-24
-1.521740433e-23
3.518039858e-24
-1.371314449e-23
3.02027771e-24
-1.243503122e-23
2.54089066e-24
-1.13608474e-23
2.077704981e-24
-1.047204753e-23
1.628288e-24
-9.753376833e-24
1.19004137e-24
-9.192561562e-24
7.602646598e-25
-8.78006242e-24
3.361976177e-25
-8.508884705e-24
-8.374440206e-24
-7.156210174e-09
3.780907714e-10
-8.219844363e-09
8.564150956e-10
-9.977095e-09
9.496250377e-10
-1.239620195e-08
1.768485312e-10
-1.556225409e-08
-1.699205993e-09
-1.767757109e-08
-6.892478982e-09
-1.258799066e-08
-1.972938436e-08
3.336903236e-16
-2.440689123e-08
-7.437172731e-22
-1.764483073e-22
-6.629501792e-22
-2.416588166e-22
-5.557730382e-22
-3.686553566e-22
-4.429416752e-22
-4.39293715e-22
-3.383418115e-22
-4.635407945e-22
-2.488241407e-22
-4.555150109e-22
-1.762681179e-22
-4.279481718e-22
-1.197243737e-22
-3.903981134e-22
-7.69679789e-23
-3.492675364e-22
-4.543390302e-23
-3.084661039e-22
-2.269914681e-23
-2.701531075e-22
-6.684077624e-24
-2.353521236e-22
4.299875202e-24
-2.043963967e-22
1.157621972e-23
-1.772272158e-22
1.615792809e-23
-1.535829497e-22
1.880735736e-23
-1.331132511e-22
2.009111413e-23
-1.154447352e-22
2.042615181e-23
-1.002164332e-22
2.011666856e-23
-8.709707901e-23
1.938277293e-23
-7.579187064e-23
1.838232843e-23
-6.604341308e-23
1.722738853e-23
-5.762966018e-23
1.599645524e-23
-5.036049778e-23
1.474356857e-23
-4.407389037e-23
1.350501785e-23
-3.863208393e-23
1.23042815e-23
-3.391810613e-23
1.115565323e-23
-2.983266194e-23
1.006689694e-23
-2.629144474e-23
9.041184957e-24
-2.322284267e-23
8.078507603e-24
-2.056600189e-23
7.176693361e-24
-1.826920233e-23
6.332142121e-24
-1.628850178e-23
5.540347216e-24
-1.458660792e-23
4.796262039e-24
-1.313194251e-23
4.094552439e-24
-1.18978674e-23
3.429765312e-24
-1.086204649e-23
2.796435844e-24
-1.000592263e-23
2.189150033e-24
-9.314291962e-24
1.6025748e-24
-8.774961786e-24
1.031464867e-24
-8.378480712e-24
4.706532957e-25
-8.117932472e-24
-7.988786768e-24
-6.751964545e-09
8.705551055e-10
-8.236383204e-09
2.340833732e-09
-1.091145538e-08
3.624697155e-09
-1.524622356e-08
4.511616625e-09
-2.20267738e-08
5.081344095e-09
-2.77965526e-08
-1.122700409e-09
-2.089704173e-08
-2.662889554e-08
4.405926578e-16
-4.530393321e-08
-9.229250833e-22
-3.41349768e-22
-7.900561369e-22
-3.745340554e-22
-6.264605733e-22
-5.322642829e-22
-4.672578562e-22
-5.985169439e-22
-3.303783624e-22
-6.004476515e-22
-2.213041155e-22
-5.646233748e-22
-1.387494308e-22
-5.105436545e-22
-7.86129586e-23
-4.50581987e-22
-3.617713239e-23
-3.917572773e-22
-7.125926531e-24
-3.375776361e-22
1.210020135e-23
-2.894458607e-22
2.42719354e-23
-2.475966588e-22
3.147033739e-23
-2.116736421e-22
3.522220252e-23
-1.810638233e-22
3.662945649e-23
-1.550806923e-22
3.647764248e-23
-1.330575111e-22
3.532103982e-23
-1.143896229e-22
3.354695108e-23
-9.854907525e-23
3.142313865e-23
-8.508505502e-23
2.913231895e-23
-7.361770838e-23
2.679701327e-23
-6.38294397e-23
2.449734524e-23
-5.545580031e-23
2.228373794e-23
-4.827697119e-23
2.018594842e-23
-4.211024703e-23
1.821948241e-23
-3.680361927e-23
1.639013898e-23
-3.223040616e-23
1.469722148e-23
-2.828481467e-23
1.313579733e-23
-2.487830036e-23
1.169827928e-23
-2.193659519e-23
1.037552257e-23
-1.939728665e-23
9.157576719e-24
-1.720784804e-23
8.034190787e-24
-1.53240361e-23
6.995143207e-24
-1.370858744e-23
6.030446648e-24
-1.233015783e-23
5.130464321e-24
-1.116245955e-23
4.285963703e-24
-1.018356076e-23
3.488126278e-24
-9.375318372e-24
2.728526542e-24
-8.722921668e-24
1.999089779e-24
-8.214528847e-24
1.292035314e-24
-7.840982676e-24
5.998100257e-25
-7.595594535e-24
-7.47398896e-24
-5.343097887e-09
1.398057129e-09
-7.052903712e-09
4.050639534e-09
-1.037899805e-08
6.950791446e-09
-1.644838489e-08
1.058100341e-08
-2.662244161e-08
1.52554007e-08
-3.651507878e-08
8.769936498e-09
-2.960849298e-08
-3.353548179e-08
2.925177461e-16
-7.491242584e-08
-1.179034657e-21
-5.984551544e-22
-9.480037987e-22
-6.055712074e-22
-6.92846124e-22
-7.874353246e-22
-4.693184708e-22
-8.220651121e-22
-2.946495458e-22
-7.751439478e-22
-1.672850129e-22
-6.92022032e-22
-7.882216687e-23
-5.99047306e-22
-1.980545242e-23
-5.096461113e-22
1.799562469e-23
-4.296122787e-22
4.100469233e-23
-3.606470406e-22
5.39511463e-23
-3.024589516e-22
6.019795441e-23
-2.539162806e-22
6.208351997e-23
-2.136380648e-22
6.120860101e-23
-1.802736614e-22
5.865560129e-23
-1.526181971e-22
5.514811843e-23
-1.29646119e-22
5.116379729e-23
-1.105068099e-22
4.701283332e-23
-9.450486055e-23
4.289204214e-23
-8.107607157e-23
3.892188396e-23
-6.976422764e-23
3.517173024e-23
-6.020063895e-23
3.167707e-23
-5.208696951e-23
2.845120726e-23
-4.518121101e-23
2.54931972e-23