/*--------------------------------*- C++ -*----------------------------------*\
  =========                 |
  \\      /  F ield         | OpenFOAM: The Open Source CFD Toolbox
   \\    /   O peration     | Website:  https://openfoam.org
    \\  /    A nd           | Version:  6
     \\/     M anipulation  |
\*---------------------------------------------------------------------------*/
FoamFile
{
    version     2.0;
    format      ascii;
    class       volScalarField;
    location    "0.01";
    object      Temperature;
}
// * * * * * * * * * * * * * * * * * * * * * * * * * * * * * * * * * * * * * //

dimensions      [0 0 0 1 0 0 0];

internalField   nonuniform List<scalar> 
2500
(
300.0000048
300.0000054
300.0000064
300.0000073
300.0000075
300.0000063
300.0000037
300.0000001
300
300
300
300
300
300
300
300
300
300
300
300
300
300
300
300
300
300
300
300
300
300
300
300
300
300
300
300
300
300
300
300
300
300
300
300
300
300
300
300
300
300
300.0000193
300.000022
300.0000262
300.0000301
300.000031
300.0000265
300.0000156
300.0000004
300
300
300
300
300
300
300
300
300
300
300
300
300
300
300
300
300
300
300
300
300
300
300
300
300
300
300
300
300
300
300
300
300
300
300
300
300
300
300
300
300
300
300.000053
300.0000609
300.0000738
300.0000859
300.0000895
300.0000771
300.0000459
300.0000012
300.0000001
300
300
300
300
300
300
300
300
300
300
300
300
300
300
300
300
300
300
300
300
300
300
300
300
300
300
300
300
300
300
300
300
300
300
300
300
300
300
300
300
300
300.000137
300.000159
300.0001954
300.000231
300.0002441
300.0002132
300.0001284
300.0000035
300.0000004
300.0000001
300
300
300
300
300
300
300
300
300
300
300
300
300
300
300
300
300
300
300
300
300
300
300
300
300
300
300
300
300
300
300
300
300
300
300
300
300
300
300
300
300.0003426
300.0004023
300.0005025
300.0006039
300.0006486
300.0005752
300.0003511
300.0000104
300.0000018
300.0000005
300.0000001
300
300
300
300
300
300
300
300
300
300
300
300
300
300
300
300
300
300
300
300
300
300
300
300
300
300
300
300
300
300
300
300
300
300
300
300
300
300
300
300.0008322
300.0009894
300.0012576
300.0015389
300.001683
300.0015194
300.0009439
300.0000323
300.000009
300.0000029
300.0000007
300.0000001
300
300
300
300
300
300
300
300
300
300
300
300
300
300
300
300
300
300
300
300
300
300
300
300
300
300
300
300
300
300
300
300
300
300
300
300
300
300
300.0019619
300.0023639
300.0030608
300.0038196
300.0042618
300.003929
300.002497
300.0001076
300.000045
300.0000148
300.0000035
300.0000006
300.0000001
300
300
300
300
300
300
300
300
300
300
300
300
300
300
300
300
300
300
300
300
300
300
300
300
300
300
300
300
300
300
300
300
300
300
300
300
300
300.0044827
300.0054786
300.0072351
300.0092211
300.0105215
300.0099414
300.0065076
300.0003843
300.0002179
300.0000716
300.0000167
300.000003
300.0000004
300.0000001
300
300
300
300
300
300
300
300
300
300
300
300
300
300
300
300
300
300
300
300
300
300
300
300
300
300
300
300
300
300
300
300
300
300
300
300
300.0099103
300.0122967
300.0165814
300.0216175
300.0252869
300.0245893
300.0167163
300.0014358
300.0009987
300.0003239
300.0000743
300.0000133
300.0000019
300.0000002
300
300
300
300
300
300
300
300
300
300
300
300
300
300
300
300
300
300
300
300
300
300
300
300
300
300
300
300
300
300
300
300
300
300
300
300
300.02116
300.0266777
300.0367724
300.0491158
300.0590489
300.0593609
300.0423082
300.0054032
300.0042727
300.0013574
300.0003069
300.0000541
300.0000079
300.000001
300.0000001
300
300
300
300
300
300
300
300
300
300
300
300
300
300
300
300
300
300
300
300
300
300
300
300
300
300
300
300
300
300
300
300
300
300
300
300.0435414
300.0558221
300.0787329
300.1078955
300.1336519
300.1395383
300.1053049
300.0197876
300.0169371
300.005254
300.0011693
300.0002038
300.0000293
300.0000036
300.0000004
300
300
300
300
300
300
300
300
300
300
300
300
300
300
300
300
300
300
300
300
300
300
300
300
300
300
300
300
300
300
300
300
300
300
300
300.0861363
300.1123768
300.1623281
300.2285326
300.2923362
300.318348
300.2567833
300.068841
300.061918
300.0187365
300.0041057
300.0007079
300.000101
300.0000123
300.0000013
300.0000001
300
300
300
300
300
300
300
300
300
300
300
300
300
300
300
300
300
300
300
300
300
300
300
300
300
300
300
300
300
300
300
300
300
300
300.1633659
300.2170348
300.3213414
300.4652619
300.6157345
300.7019229
300.6100588
300.2240878
300.2080799
300.0614378
300.0132628
300.0022628
300.0003203
300.0000389
300.0000041
300.0000004
300
300
300
300
300
300
300
300
300
300
300
300
300
300
300
300
300
300
300
300
300
300
300
300
300
300
300
300
300
300
300
300
300
300
300.2961008
300.4008434
300.6088099
300.907357
301.2439321
301.4883858
301.4028865
300.6763187
300.6412624
300.1849224
300.0393562
300.006649
300.0009342
300.0001127
300.000012
300.0000011
300.0000001
300
300
300
300
300
300
300
300
300
300
300
300
300
300
300
300
300
300
300
300
300
300
300
300
300
300
300
300
300
300
300
300
300
300.5109853
300.7053918
301.1000795
301.6891387
302.4008788
303.0201415
303.102041
301.8822057
301.8088774
300.510164
300.1071389
300.0179353
300.0025025
300.0003003
300.0000317
300.000003
300.0000003
300
300
300
300
300
300
300
300
300
300
300
300
300
300
300
300
300
300
300
300
300
300
300
300
300
300
300
300
300
300
300
300
300
300.8359203
301.1777383
301.8885289
302.9910759
304.4121277
305.839291
306.5498962
304.8128453
304.6630255
301.2883405
300.2672526
300.0443631
300.0061507
300.0007342
300.0000772
300.0000073
300.0000006
300
300
300
300
300
300
300
300
300
300
300
300
300
300
300
300
300
300
300
300
300
300
300
300
300
300
300
300
300
300
300
300
300
301.2878365
301.8502103
303.0554314
305.0154479
307.7039789
310.7112364
313.0784855
311.2731756
310.9703727
302.9747201
300.6101955
300.1005182
300.0138565
300.0016464
300.0001724
300.0000162
300.0000014
300.0000001
300
300
300
300
300
300
300
300
300
300
300
300
300
300
300
300
300
300
300
300
300
300
300
300
300
300
300
300
300
300
300
300
301.8605013
302.7126875
304.5938882
307.8024027
312.5444193
318.5159175
324.3337646
324.1118936
323.5257536
306.2733558
301.2739906
300.2084356
300.0285861
300.0033827
300.000353
300.000033
300.0000028
300.0000002
300
300
300
300
300
300
300
300
300
300
300
300
300
300
300
300
300
300
300
300
300
300
300
300
300
300
300
300
300
300
300
300
302.52202
303.7035069
306.376224
311.1116414
318.5795212
329.1308577
341.4280011
346.9407944
345.9376999
312.0721876
302.4301754
300.3952233
300.0539608
300.0063624
300.0006619
300.0000618
300.0000052
300.0000004
300
300
300
300
300
300
300
300
300
300
300
300
300
300
300
300
300
300
300
300
300
300
300
300
300
300
300
300
300
300
300
300
303.235787
304.7444229
308.2187147
314.5195166
324.935606
341.2375272
363.9105968
382.9606038
381.604445
321.1815505
304.2321261
300.6847686
300.0931363
300.0109479
300.0011359
300.0001058
300.000009
300.0000007
300.0000001
300
300
300
300
300
300
300
300
300
300
300
300
300
300
300
300
300
300
300
300
300
300
300
300
300
300
300
300
300
300
300
303.9836102
305.8233512
310.0860423
317.9205715
331.2059271
353.166519
389.2061658
432.9241662
431.7918722
333.8639452
306.7245265
301.0834627
300.1468978
300.0172237
300.0017833
300.0001657
300.000014
300.0000011
300.0000001
300
300
300
300
300
300
300
300
300
300
300
300
300
300
300
300
300
300
300
300
300
300
300
300
300
300
300
300
300
300
300
304.7156906
306.8861182
311.9697348
321.4625874
337.9404441
366.0097251
414.6043215
493.0596587
493.4180655
349.3079989
309.7440163
301.5647458
300.2116209
300.0247626
300.0025595
300.0002375
300.00002
300.0000016
300.0000001
300
300
300
300
300
300
300
300
300
300
300
300
300
300
300
300
300
300
300
300
300
300
300
300
300
300
300
300
300
300
300
305.3676789
307.8453287
313.7175916
324.8686511
344.6763267
379.3020459
441.0558473
554.6145522
557.9000027
365.3681372
312.8718297
302.0619518
300.2783485
300.0325222
300.0033573
300.0003112
300.0000262
300.000002
300.0000001
300
300
300
300
300
300
300
300
300
300
300
300
300
300
300
300
300
300
300
300
300
300
300
300
300
300
300
300
300
300
300
305.864703
308.5879439
315.1074408
327.6654512
350.3985064
390.9990122
464.6867785
606.1764849
612.4614169
378.8945648
315.4987084
302.4787119
300.3341976
300.039009
300.0040235
300.0003727
300.0000314
300.0000024
300.0000002
300
300
300
300
300
300
300
300
300
300
300
300
300
300
300
300
300
300
300
300
300
300
300
300
300
300
300
300
300
300
300
306.1360404
308.9990513
315.8936282
329.2872067
353.8039398
398.189659
479.7042308
635.9746999
643.9571039
386.6788061
317.0076764
302.7178186
300.3662106
300.0427245
300.0044049
300.0004079
300.0000344
300.0000027
300.0000002
300
300
300
300
300
300
300
300
300
300
300
300
300
300
300
300
300
300
300
300
300
300
300
300
300
300
300
300
300
300
300
306.1360402
308.9990511
315.8936284
329.2872084
353.803945
398.1896701
479.7042481
635.9746978
643.9571003
386.6788053
317.0076762
302.7178186
300.3662106
300.0427245
300.0044049
300.0004079
300.0000344
300.0000027
300.0000002
300
300
300
300
300
300
300
300
300
300
300
300
300
300
300
300
300
300
300
300
300
300
300
300
300
300
300
300
300
300
300
305.8647021
308.5879429
315.1074405
327.6654539
350.3985178
390.9990409
464.6868245
606.1764784
612.4614061
378.8945623
315.4987081
302.4787118
300.3341976
300.039009
300.0040235
300.0003727
300.0000314
300.0000024
300.0000002
300
300
300
300
300
300
300
300
300
300
300
300
300
300
300
300
300
300
300
300
300
300
300
300
300
300
300
300
300
300
300
305.367677
307.8453262
313.7175885
324.8686491
344.6763312
379.3020658
441.0558784
554.6145484
557.8999912
365.3681346
312.8718293
302.0619518
300.2783485
300.0325222
300.0033573
300.0003112
300.0000262
300.000002
300.0000001
300
300
300
300
300
300
300
300
300
300
300
300
300
300
300
300
300
300
300
300
300
300
300
300
300
300
300
300
300
300
300
304.7156875
306.8861136
311.9697271
321.4625754
337.9404278
366.0097052
414.6042902
493.0596752
493.4180637
349.3079983
309.7440162
301.5647458
300.2116209
300.0247626
300.0025595
300.0002375
300.00002
300.0000016
300.0000001
300
300
300
300
300
300
300
300
300
300
300
300
300
300
300
300
300
300
300
300
300
300
300
300
300
300
300
300
300
300
300
303.9836062
305.8233447
310.0860303
317.9205495
331.2058892
353.1664585
389.2060777
432.9242202
431.791882
333.8639466
306.7245266
301.0834627
300.1468978
300.0172237
300.0017833
300.0001657
300.000014
300.0000011
300.0000001
300
300
300
300
300
300
300
300
300
300
300
300
300
300
300
300
300
300
300
300
300
300
300
300
300
300
300
300
300
300
300
303.2357827
304.7444158
308.2187005
314.51949
324.9355596
341.2374637
363.9105587
382.9606848
381.6044557
321.1815519
304.2321263
300.6847686
300.0931363
300.0109479
300.0011359
300.0001058
300.000009
300.0000007
300.0000001
300
300
300
300
300
300
300
300
300
300
300
300
300
300
300
300
300
300
300
300
300
300
300
300
300
300
300
300
300
300
300
302.5220163
303.703501
306.3762134
311.1116235
318.5794953
329.1308292
341.4279884
346.9408365
345.9377014
312.0721878
302.4301754
300.3952233
300.0539609
300.0063624
300.0006619
300.0000618
300.0000052
300.0000004
300
300
300
300
300
300
300
300
300
300
300
300
300
300
300
300
300
300
300
300
300
300
300
300
300
300
300
300
300
300
300
300
301.8604986
302.7126835
304.5938815
307.8023926
312.5444061
318.5159041
324.3337547
324.111891
323.5257525
306.2733557
301.2739906
300.2084356
300.0285861
300.0033827
300.000353
300.000033
300.0000028
300.0000002
300
300
300
300
300
300
300
300
300
300
300
300
300
300
300
300
300
300
300
300
300
300
300
300
300
300
300
300
300
300
300
300
301.2878348
301.8502079
303.0554277
305.0154425
307.7039719
310.7112279
313.0784768
311.2731638
310.970372
302.97472
300.6101955
300.1005182
300.0138565
300.0016464
300.0001724
300.0000162
300.0000014
300.0000001
300
300
300
300
300
300
300
300
300
300
300
300
300
300
300
300
300
300
300
300
300
300
300
300
300
300
300
300
300
300
300
300
300.8359193
301.177737
301.888527
302.9910731
304.412124
305.8392868
306.5498923
304.8128441
304.6630254
301.2883405
300.2672526
300.0443631
300.0061507
300.0007342
300.0000772
300.0000073
300.0000006
300
300
300
300
300
300
300
300
300
300
300
300
300
300
300
300
300
300
300
300
300
300
300
300
300
300
300
300
300
300
300
300
300
300.5109848
300.7053911
301.1000785
301.6891374
302.4008771
303.0201396
303.1020396
301.8822056
301.8088774
300.510164
300.1071389
300.0179353
300.0025025
300.0003003
300.0000317
300.000003
300.0000003
300
300
300
300
300
300
300
300
300
300
300
300
300
300
300
300
300
300
300
300
300
300
300
300
300
300
300
300
300
300
300
300
300
300.2961005
300.4008431
300.6088095
300.9073564
301.2439313
301.488385
301.4028859
300.6763187
300.6412624
300.1849224
300.0393562
300.006649
300.0009342
300.0001127
300.000012
300.0000011
300.0000001
300
300
300
300
300
300
300
300
300
300
300
300
300
300
300
300
300
300
300
300
300
300
300
300
300
300
300
300
300
300
300
300
300
300.1633658
300.2170347
300.3213412
300.4652617
300.6157342
300.7019226
300.6100586
300.2240878
300.2080799
300.0614378
300.0132628
300.0022628
300.0003203
300.0000389
300.0000041
300.0000004
300
300
300
300
300
300
300
300
300
300
300
300
300
300
300
300
300
300
300
300
300
300
300
300
300
300
300
300
300
300
300
300
300
300
300.0861363
300.1123767
300.162328
300.2285325
300.2923361
300.3183479
300.2567833
300.068841
300.061918
300.0187365
300.0041057
300.0007079
300.000101
300.0000123
300.0000013
300.0000001
300
300
300
300
300
300
300
300
300
300
300
300
300
300
300
300
300
300
300
300
300
300
300
300
300
300
300
300
300
300
300
300
300
300
300.0435413
300.0558221
300.0787328
300.1078955
300.1336519
300.1395383
300.1053049
300.0197876
300.0169371
300.005254
300.0011693
300.0002038
300.0000293
300.0000036
300.0000004
300
300
300
300
300
300
300
300
300
300
300
300
300
300
300
300
300
300
300
300
300
300
300
300
300
300
300
300
300
300
300
300
300
300
300
300.02116
300.0266777
300.0367724
300.0491158
300.0590489
300.0593609
300.0423082
300.0054032
300.0042727
300.0013574
300.0003069
300.0000541
300.0000079
300.000001
300.0000001
300
300
300
300
300
300
300
300
300
300
300
300
300
300
300
300
300
300
300
300
300
300
300
300
300
300
300
300
300
300
300
300
300
300
300
300.0099103
300.0122966
300.0165814
300.0216175
300.0252869
300.0245893
300.0167163
300.0014358
300.0009987
300.0003239
300.0000743
300.0000133
300.0000019
300.0000002
300
300
300
300
300
300
300
300
300
300
300
300
300
300
300
300
300
300
300
300
300
300
300
300
300
300
300
300
300
300
300
300
300
300
300
300
300.0044826
300.0054786
300.0072351
300.0092211
300.0105215
300.0099414
300.0065076
300.0003843
300.0002179
300.0000716
300.0000167
300.000003
300.0000004
300.0000001
300
300
300
300
300
300
300
300
300
300
300
300
300
300
300
300
300
300
300
300
300
300
300
300
300
300
300
300
300
300
300
300
300
300
300
300
300.0019619
300.0023639
300.0030608
300.0038196
300.0042618
300.003929
300.002497
300.0001076
300.000045
300.0000148
300.0000035
300.0000006
300.0000001
300
300
300
300
300
300
300
300
300
300
300
300
300
300
300
300
300
300
300
300
300
300
300
300
300
300
300
300
300
300
300
300
300
300
300
300
300
300.0008322
300.0009894
300.0012576
300.0015389
300.001683
300.0015194
300.0009439
300.0000323
300.000009
300.0000029
300.0000007
300.0000001
300
300
300
300
300
300
300
300
300
300
300
300
300
300
300
300
300
300
300
300
300
300
300
300
300
300
300
300
300
300
300
300
300
300
300
300
300
300
300.0003426
300.0004023
300.0005025
300.0006039
300.0006486
300.0005752
300.0003511
300.0000104
300.0000018
300.0000005
300.0000001
300
300
300
300
300
300
300
300
300
300
300
300
300
300
300
300
300
300
300
300
300
300
300
300
300
300
300
300
300
300
300
300
300
300
300
300
300
300
300
300.000137
300.000159
300.0001954
300.000231
300.0002441
300.0002132
300.0001284
300.0000035
300.0000004
300.0000001
300
300
300
300
300
300
300
300
300
300
300
300
300
300
300
300
300
300
300
300
300
300
300
300
300
300
300
300
300
300
300
300
300
300
300
300
300
300
300
300
300.000053
300.0000609
300.0000738
300.0000859
300.0000895
300.0000771
300.0000459
300.0000012
300.0000001
300
300
300
300
300
300
300
300
300
300
300
300
300
300
300
300
300
300
300
300
300
300
300
300
300
300
300
300
300
300
300
300
300
300
300
300
300
300
300
300
300
300.0000193
300.000022
300.0000262
300.0000301
300.000031
300.0000265
300.0000156
300.0000004
300
300
300
300
300
300
300
300
300
300
300
300
300
300
300
300
300
300
300
300
300
300
300
300
300
300
300
300
300
300
300
300
300
300
300
300
300
300
300
300
300
300
300.0000048
300.0000054
300.0000064
300.0000073
300.0000075
300.0000063
300.0000037
300.0000001
300
300
300
300
300
300
300
300
300
300
300
300
300
300
300
300
300
300
300
300
300
300
300
300
300
300
300
300
300
300
300
300
300
300
300
300
300
300
300
300
300
300
)
;

boundaryField
{
    lowerWall
    {
        type            fixedValue;
        value           uniform 300;
    }
    atmosphere
    {
        type            zeroGradient;
    }
    rightWall
    {
        type            empty;
    }
    leftWall
    {
        type            empty;
    }
    frontAndBack
    {
        type            fixedValue;
        value           uniform 300;
    }
}


// ************************************************************************* //
