/*--------------------------------*- C++ -*----------------------------------*\
  =========                 |
  \\      /  F ield         | OpenFOAM: The Open Source CFD Toolbox
   \\    /   O peration     | Website:  https://openfoam.org
    \\  /    A nd           | Version:  6
     \\/     M anipulation  |
\*---------------------------------------------------------------------------*/
FoamFile
{
    version     2.0;
    format      ascii;
    class       volVectorField;
    location    "0.01";
    object      U;
}
// * * * * * * * * * * * * * * * * * * * * * * * * * * * * * * * * * * * * * //

dimensions      [0 1 -1 0 0 0 0];

internalField   nonuniform List<vector> 
2500
(
(0 -0.00709240871 -9.740330162e-05)
(0 -0.006664834034 -0.0002596329605)
(0 -0.005988761657 -0.0004154920456)
(0 -0.005009261619 -0.0005525701943)
(0 -0.003780432174 -0.000663311193)
(0 -0.002375526493 -0.000741124215)
(0 -0.0004410415777 -0.000752323336)
(0 1.671979571e-05 -4.188228805e-05)
(0 -8.602637349e-16 -2.28859178e-19)
(0 -1.711122303e-15 -7.474158944e-18)
(0 -1.686971539e-15 -1.454055269e-17)
(0 -1.651366455e-15 -2.111454056e-17)
(0 -1.603341965e-15 -2.699403973e-17)
(0 -1.54443824e-15 -3.203006762e-17)
(0 -1.47643473e-15 -3.612990831e-17)
(0 -1.401241523e-15 -3.925593458e-17)
(0 -1.320794286e-15 -4.142014826e-17)
(0 -1.236963525e-15 -4.26755671e-17)
(0 -1.151482808e-15 -4.310595148e-17)
(0 -1.065897811e-15 -4.281526748e-17)
(0 -9.81535655e-16 -4.191796196e-17)
(0 -8.9949218e-16 -4.053073636e-17)
(0 -8.206338662e-16 -3.876614323e-17)
(0 -7.456106948e-16 -3.67280417e-17)
(0 -6.748763989e-16 -3.450875187e-17)
(0 -6.087129756e-16 -3.218763657e-17)
(0 -5.472569186e-16 -2.983079645e-17)
(0 -4.905252524e-16 -2.749156934e-17)
(0 -4.384400361e-16 -2.521155975e-17)
(0 -3.908505022e-16 -2.302197262e-17)
(0 -3.475523943e-16 -2.094507792e-17)
(0 -3.083043702e-16 -1.899568077e-17)
(0 -2.728415412e-16 -1.718251382e-17)
(0 -2.408863538e-16 -1.550950148e-17)
(0 -2.121570972e-16 -1.397687093e-17)
(0 -1.863743473e-16 -1.258210284e-17)
(0 -1.632656659e-16 -1.13207265e-17)
(0 -1.425688523e-16 -1.018697161e-17)
(0 -1.240340187e-16 -9.174293027e-18)
(0 -1.074247254e-16 -8.275786127e-18)
(0 -9.251837565e-17 -7.484511382e-18)
(0 -7.910603447e-17 -6.793746152e-18)
(0 -6.699179743e-17 -6.197183135e-18)
(0 -5.59917911e-17 -5.68909994e-18)
(0 -4.59328205e-17 -5.264543417e-18)
(0 -3.665052721e-17 -4.919636614e-18)
(0 -2.798648523e-17 -4.652341603e-18)
(0 -1.978217423e-17 -4.4648468e-18)
(0 -1.186222132e-17 -4.372027666e-18)
(0 -3.974787174e-18 -4.435170612e-18)
(0 -0.007463644707 -0.0002965807925)
(0 -0.007016634773 -0.000792335426)
(0 -0.00630676103 -0.001269838412)
(0 -0.005277911582 -0.001689799622)
(0 -0.003985202502 -0.002029559842)
(0 -0.00250387342 -0.00226851473)
(0 -0.0004591891716 -0.002303980505)
(0 1.752849231e-05 -0.0001265012348)
(0 -8.675024865e-16 -6.872526864e-19)
(0 -1.725547615e-15 -2.269841646e-17)
(0 -1.70061192e-15 -4.416578921e-17)
(0 -1.663819942e-15 -6.410456741e-17)
(0 -1.614257492e-15 -8.190635679e-17)
(0 -1.553574109e-15 -9.712140153e-17)
(0 -1.483660597e-15 -1.094726698e-16)
(0 -1.406531763e-15 -1.188526842e-16)
(0 -1.324213918e-15 -1.25306025e-16)
(0 -1.238649328e-15 -1.290019866e-16)
(0 -1.151622508e-15 -1.302023591e-16)
(0 -1.064709822e-15 -1.292287408e-16)
(0 -9.792511239e-16 -1.264326765e-16)
(0 -8.963403612e-16 -1.221706549e-16)
(0 -8.168311716e-16 -1.167848614e-16)
(0 -7.413533034e-16 -1.105897039e-16)
(0 -6.703359937e-16 -1.038635473e-16)
(0 -6.040350202e-16 -9.684477298e-17)
(0 -5.425608514e-16 -8.973117233e-17)
(0 -4.859060157e-16 -8.26817195e-17)
(0 -4.339704394e-16 -7.58198852e-17)
(0 -3.865840204e-16 -6.923781169e-17)
(0 -3.435261024e-16 -6.300083154e-17)
(0 -3.045418061e-16 -5.715196167e-17)
(0 -2.693553619e-16 -5.171613056e-17)
(0 -2.37680711e-16 -4.670399596e-17)
(0 -2.092296986e-16 -4.211528514e-17)
(0 -1.837182029e-16 -3.794164208e-17)
(0 -1.608705347e-16 -3.416900067e-17)
(0 -1.404224188e-16 -3.077952384e-17)
(0 -1.221228333e-16 -2.775315958e-17)
(0 -1.057349438e-16 -2.5068869e-17)
(0 -9.103633568e-17 -2.27055815e-17)
(0 -7.781870623e-17 -2.06429309e-17)
(0 -6.588715122e-17 -1.886182602e-17)
(0 -5.505915138e-17 -1.734491581e-17)
(0 -4.516335717e-17 -1.607703369e-17)
(0 -3.60383254e-17 -1.504578264e-17)
(0 -2.753169542e-17 -1.42426442e-17)
(0 -1.95018603e-17 -1.366564128e-17)
(0 -1.183254513e-17 -1.332646956e-17)
(0 -4.037930119e-18 -1.327134173e-17)
(0 -0.008170970904 -0.000508161131)
(0 -0.007684743524 -0.001360247859)
(0 -0.006912102088 -0.002182809385)
(0 -0.005790139478 -0.00290771801)
(0 -0.00437654156 -0.003496069422)
(0 -0.002751916618 -0.003911227538)
(0 -0.0005055374761 -0.00397460948)
(0 1.923786157e-05 -0.0002165499906)
(0 -8.82475922e-16 -1.173188629e-18)
(0 -1.754943914e-15 -3.874380768e-17)
(0 -1.72837769e-15 -7.535936351e-17)
(0 -1.689107022e-15 -1.09281203e-16)
(0 -1.636358799e-15 -1.394648803e-16)
(0 -1.572004553e-15 -1.651459703e-16)
(0 -1.498166013e-15 -1.858661379e-16)
(0 -1.417074878e-15 -2.014654665e-16)
(0 -1.330943588e-15 -2.120484042e-16)
(0 -1.241859859e-15 -2.179327012e-16)
(0 -1.151709562e-15 -2.195908319e-16)
(0 -1.062128129e-15 -2.175918636e-16)
(0 -9.744775692e-16 -2.125494236e-16)
(0 -8.898443649e-16 -2.050790219e-16)
(0 -8.090529152e-16 -1.95765941e-16)
(0 -7.326893807e-16 -1.851433966e-16)
(0 -6.61131468e-16 -1.736797335e-16)
(0 -5.945806006e-16 -1.617729529e-16)
(0 -5.330938651e-16 -1.497507602e-16)
(0 -4.766139652e-16 -1.378744479e-16)
(0 -4.249961283e-16 -1.263451737e-16)
(0 -3.780314485e-16 -1.153114944e-16)
(0 -3.354665443e-16 -1.048773073e-16)
(0 -2.970196693e-16 -9.510961051e-17)
(0 -2.623935755e-16 -8.604570728e-17)
(0 -2.312855084e-16 -7.769964568e-17)
(0 -2.033947433e-16 -7.006780352e-17)
(0 -1.784280628e-16 -6.313361298e-17)
(0 -1.561035476e-16 -5.687147184e-17)
(0 -1.361530112e-16 -5.124991906e-17)
(0 -1.183233639e-16 -4.623416701e-17)
(0 -1.023771474e-16 -4.178808683e-17)
(0 -8.809243754e-17 -3.787574046e-17)
(0 -7.526227899e-17 -3.446254749e-17)
(0 -6.369378234e-17 -3.151616777e-17)
(0 -5.320699877e-17 -2.900717678e-17)
(0 -4.363368733e-17 -2.690960817e-17)
(0 -3.481613772e-17 -2.520143115e-17)
(0 -2.660634388e-17 -2.386496929e-17)
(0 -1.88659996e-17 -2.28869019e-17)
(0 -1.146792177e-17 -2.225567979e-17)
(0 -3.919659343e-18 -2.194561278e-17)
(0 -0.009268212271 -0.0007420300308)
(0 -0.00872372222 -0.001988637097)
(0 -0.007856290447 -0.003194391223)
(0 -0.006591979358 -0.004261834102)
(0 -0.004991531191 -0.00513297013)
(0 -0.003142869735 -0.005751540303)
(0 -0.0005768889292 -0.005848204786)
(0 2.202852507e-05 -0.0003176947196)
(0 -9.056028842e-16 -1.721148729e-18)
(0 -1.800320835e-15 -5.621448491e-17)
(0 -1.771149316e-15 -1.092328563e-16)
(0 -1.727925459e-15 -1.581768345e-16)
(0 -1.670122259e-15 -2.015018659e-16)
(0 -1.599975366e-15 -2.381027224e-16)
(0 -1.519980094e-15 -2.673473055e-16)
(0 -1.432714029e-15 -2.890572495e-16)
(0 -1.340681153e-15 -3.034478879e-16)
(0 -1.246191756e-15 -3.110439725e-16)
(0 -1.15128167e-15 -3.125867735e-16)
(0 -1.057668414e-15 -3.089448508e-16)
(0 -9.667382822e-16 -3.010365922e-16)
(0 -8.795568786e-16 -2.897686481e-16)
(0 -7.968955462e-16 -2.759912485e-16)
(0 -7.19267096e-16 -2.604692355e-16)
(0 -6.4696555e-16 -2.438664206e-16)
(0 -5.801060469e-16 -2.267403895e-16)
(0 -5.186623464e-16 -2.095448909e-16)
(0 -4.625004291e-16 -1.926372662e-16)
(0 -4.114074859e-16 -1.76288834e-16)
(0 -3.65116154e-16 -1.606966306e-16)
(0 -3.233242186e-16 -1.459953622e-16)
(0 -2.857102061e-16 -1.322688068e-16)
(0 -2.519453971e-16 -1.195602056e-16)
(0 -2.217028072e-16 -1.078814138e-16)
(0 -1.946636659e-16 -9.722073616e-17)
(0 -1.705218712e-16 -8.754948266e-17)
(0 -1.489868407e-16 -7.882733988e-17)
(0 -1.29785114e-16 -7.100669072e-17)
(0 -1.12661001e-16 -6.403602659e-17)
(0 -9.737651725e-17 -5.786259635e-17)
(0 -8.371079635e-17 -5.243442747e-17)
(0 -7.145913354e-17 -4.770184201e-17)
(0 -6.043178051e-17 -4.361857473e-17)
(0 -5.045259178e-17 -4.014258404e-17)
(0 -4.135761154e-17 -3.723662483e-17)
(0 -3.299368652e-17 -3.486861264e-17)
(0 -2.521716617e-17 -3.301171599e-17)
(0 -1.78925708e-17 -3.164389248e-17)
(0 -1.0891256e-17 -3.074619652e-17)
(0 -3.727863102e-18 -3.029952747e-17)
(0 -0.01080205129 -0.00100637579)
(0 -0.01018088766 -0.00270128974)
(0 -0.009186564268 -0.004345466198)
(0 -0.007728420692 -0.005811493566)
(0 -0.005868779549 -0.007018333031)
(0 -0.003703386012 -0.007883857945)
(0 -0.0006789219325 -0.008024558545)
(0 2.605353552e-05 -0.0004344848464)
(0 -9.377453498e-16 -2.353734847e-18)
(0 -1.863316611e-15 -7.585966011e-17)
(0 -1.830340039e-15 -1.471775844e-16)
(0 -1.781376032e-15 -2.126876814e-16)
(0 -1.716284687e-15 -2.702586821e-16)
(0 -1.637849993e-15 -3.18411078e-16)
(0 -1.54912054e-15 -3.563583257e-16)
(0 -1.453175461e-15 -3.839635593e-16)
(0 -1.352930311e-15 -4.016372022e-16)
(0 -1.250998745e-15 -4.102038484e-16)
(0 -1.14961044e-15 -4.107627522e-16)
(0 -1.050577947e-15 -4.045594094e-16)
(0 -9.553013664e-16 -3.92878529e-16)
(0 -8.647990212e-16 -3.769625913e-16)
(0 -7.797535026e-16 -3.579557543e-16)
(0 -7.005645529e-16 -3.368701432e-16)
(0 -6.27402622e-16 -3.145702464e-16)
(0 -5.602590709e-16 -2.917708578e-16)
(0 -4.989907418e-16 -2.690443502e-16)
(0 -4.433579084e-16 -2.468337382e-16)
(0 -3.930554927e-16 -2.254687664e-16)
(0 -3.477379767e-16 -2.051830022e-16)
(0 -3.070387205e-16 -1.861305619e-16)
(0 -2.705845127e-16 -1.684016129e-16)
(0 -2.380061825e-16 -1.520361846e-16)
(0 -2.089460389e-16 -1.370361031e-16)
(0 -1.830628122e-16 -1.233750448e-16)
(0 -1.600346666e-16 -1.110068253e-16)
(0 -1.395607557e-16 -9.987209968e-17)
(0 -1.213616979e-16 -8.990368192e-17)
(0 -1.051792695e-16 -8.103069291e-17)
(0 -9.077554825e-17 -7.31817374e-17)
(0 -7.793168321e-17 -6.62872918e-17)
(0 -6.644642625e-17 -6.02814619e-17)
(0 -5.613452437e-17 -5.510324569e-17)
(0 -4.682504888e-17 -5.069741106e-17)
(0 -3.835971593e-17 -4.701506948e-17)
(0 -3.059122887e-17 -4.401399043e-17)
(0 -2.338162371e-17 -4.1658653e-17)
(0 -1.660048013e-17 -3.991998662e-17)
(0 -1.012355675e-17 -3.87748409e-17)
(0 -3.472990293e-18 -3.82059167e-17)
(0 -0.01283226309 -0.001308703508)
(0 -0.01211890115 -0.003521029824)
(0 -0.01096804812 -0.005677065258)
(0 -0.00926425056 -0.007620234963)
(0 -0.007066252041 -0.009240989143)
(0 -0.004474880037 -0.01042113396)
(0 -0.0008202292038 -0.01062528918)
(0 3.159852377e-05 -0.000573076378)
(0 -9.801671497e-16 -3.105173494e-18)
(0 -1.946322062e-15 -9.865114204e-17)
(0 -1.907977337e-15 -1.909269611e-16)
(0 -1.851006556e-15 -2.751343461e-16)
(0 -1.775845656e-15 -3.484306013e-16)
(0 -1.68607501e-15 -4.089212718e-16)
(0 -1.585532575e-15 -4.55708531e-16)
(0 -1.477992906e-15 -4.887992623e-16)
(0 -1.366921442e-15 -5.089319785e-16)
(0 -1.255317306e-15 -5.173705396e-16)
(0 -1.145637231e-15 -5.157005529e-16)
(0 -1.03978419e-15 -5.056514575e-16)
(0 -9.391414641e-16 -4.889557271e-16)
(0 -8.446341039e-16 -4.672477796e-16)
(0 -7.568030981e-16 -4.419994336e-16)
(0 -6.758815881e-16 -4.144857231e-16)
(0 -6.018662647e-16 -3.857738924e-16)
(0 -5.345801507e-16 -3.567286874e-16)
(0 -4.737252269e-16 -3.280280555e-16)
(0 -4.189248454e-16 -3.001846068e-16)
(0 -3.697567498e-16 -2.735694249e-16)
(0 -3.257779495e-16 -2.48435887e-16)
(0 -2.865428293e-16 -2.249420203e-16)
(0 -2.516158287e-16 -2.031705701e-16)
(0 -2.205798873e-16 -1.831464207e-16)
(0 -1.930416674e-16 -1.648513144e-16)
(0 -1.686343881e-16 -1.4823601e-16)
(0 -1.47018926e-16 -1.332301267e-16)
(0 -1.278836973e-16 -1.197499681e-16)
(0 -1.109437072e-16 -1.077046303e-16)
(0 -9.59390565e-17 -9.700068564e-17)
(0 -8.263311614e-17 -8.754570617e-17)
(0 -7.081052084e-17 -7.925085871e-17)
(0 -6.027508742e-17 -7.203276924e-17)
(0 -5.084772968e-17 -6.581482071e-17)
(0 -4.236441558e-17 -6.052801625e-17)
(0 -3.467419091e-17 -5.611150892e-17)
(0 -2.763727004e-17 -5.251287048e-17)
(0 -2.112316236e-17 -4.968814959e-17)
(0 -1.50087587e-17 -4.760177568e-17)
(0 -9.177186091e-18 -4.622645175e-17)
(0 -3.158938907e-18 -4.554340371e-17)
(0 -0.01543042319 -0.001654072536)
(0 -0.0146166463 -0.004466008913)
(0 -0.0132876011 -0.007226116747)
(0 -0.01129127992 -0.009753103478)
(0 -0.008670799701 -0.01190204203)
(0 -0.005522220904 -0.01350253234)
(0 -0.001017161766 -0.01380552764)
(0 3.904434226e-05 -0.000742418545)
(0 -1.034671698e-15 -4.815486861e-18)
(0 -2.052691916e-15 -1.259768528e-16)
(0 -2.006823243e-15 -2.427406802e-16)
(0 -1.938879672e-15 -3.48487545e-16)
(0 -1.850071612e-15 -4.394032914e-16)
(0 -1.745127923e-15 -5.131305313e-16)
(0 -1.628998531e-15 -5.687517836e-16)
(0 -1.506398908e-15 -6.065905257e-16)
(0 -1.381501588e-15 -6.279194676e-16)
(0 -1.257767319e-15 -6.346452226e-16)
(0 -1.137891358e-15 -6.290176095e-16)
(0 -1.023833122e-15 -6.133907949e-16)
(0 -9.168976885e-16 -5.900461229e-16)
(0 -8.178427277e-16 -5.610745242e-16)
(0 -7.269914461e-16 -5.283096973e-16)
(0 -6.443390117e-16 -4.933006251e-16)
(0 -5.696455863e-16 -4.573120445e-16)
(0 -5.02513234e-16 -4.213429771e-16)
(0 -4.424466612e-16 -3.861554997e-16)
(0 -3.888992778e-16 -3.523080191e-16)
(0 -3.413067729e-16 -3.201891449e-16)
(0 -2.991105721e-16 -2.900497119e-16)
(0 -2.617734035e-16 -2.620315909e-16)
(0 -2.287889132e-16 -2.36192686e-16)
(0 -1.996869268e-16 -2.125280158e-16)
(0 -1.740356282e-16 -1.909870793e-16)
(0 -1.514416245e-16 -1.714878721e-16)
(0 -1.315486247e-16 -1.539279922e-16)
(0 -1.140352593e-16 -1.381932816e-16)
(0 -9.861241542e-17 -1.241644337e-16)
(0 -8.50203454e-17 -1.117219476e-16)
(0 -7.302572132e-17 -1.007497666e-16)
(0 -6.241874627e-17 -9.113788257e-17)
(0 -5.301038825e-17 -8.278414315e-17)
(0 -4.462977139e-17 -7.559545244e-17)
(0 -3.71217371e-17 -6.948851843e-17)
(0 -3.034457016e-17 -6.439026664e-17)
(0 -2.416786953e-17 -6.023801264e-17)
(0 -1.847052891e-17 -5.697947044e-17)
(0 -1.31387823e-17 -5.457267627e-17)
(0 -8.06518479e-18 -5.298593717e-17)
(0 -2.789942256e-18 -5.219794536e-17)
(0 -0.01867424234 -0.002042199429)
(0 -0.01776723293 -0.005543037571)
(0 -0.01625717187 -0.009016971039)
(0 -0.01393829181 -0.01226998641)
(0 -0.01081354031 -0.01511489182)
(0 -0.006949232981 -0.01730457015)
(0 -0.001307061286 -0.01777145437)
(0 4.873413967e-05 -0.0009591467237)
(0 -1.103062027e-15 -7.429184172e-18)
(0 -2.186264561e-15 -1.593342576e-16)
(0 -2.130488029e-15 -3.055647116e-16)
(0 -2.047669167e-15 -4.366647849e-16)
(0 -1.940488642e-15 -5.475575146e-16)
(0 -1.815423502e-15 -6.354398009e-16)
(0 -1.678992569e-15 -6.995730195e-16)
(0 -1.53716059e-15 -7.408886263e-16)
(0 -1.394976139e-15 -7.615086228e-16)
(0 -1.256415448e-15 -7.642729409e-16)
(0 -1.124382804e-15 -7.523344198e-16)
(0 -1.000812704e-15 -7.288491339e-16)
(0 -8.868251934e-16 -6.96764931e-16)
(0 -7.828976783e-16 -6.586961304e-16)
(0 -6.89029199e-16 -6.168658488e-16)
(0 -6.048839353e-16 -5.730965981e-16)
(0 -5.299086167e-16 -5.288321152e-16)
(0 -4.634236059e-16 -4.851769549e-16)
(0 -4.046902689e-16 -4.429440679e-16)
(0 -3.529584906e-16 -4.027037969e-16)
(0 -3.074984426e-16 -3.648302616e-16)
(0 -2.676203955e-16 -3.295429465e-16)
(0 -2.326858033e-16 -2.969425695e-16)
(0 -2.021122537e-16 -2.670411113e-16)
(0 -1.753742805e-16 -2.397863571e-16)
(0 -1.520015238e-16 -2.150815438e-16)
(0 -1.315753011e-16 -1.92800797e-16)
(0 -1.137243355e-16 -1.728010482e-16)
(0 -9.812013879e-17 -1.549310699e-16)
(0 -8.447237318e-17 -1.390381959e-16)
(0 -7.252438942e-17 -1.249732129e-16)
(0 -6.204905114e-17 -1.125938293e-16)
(0 -5.284489742e-17 -1.017670542e-16)
(0 -4.473265729e-17 -9.237075509e-17)
(0 -3.755210496e-17 -8.429460921e-17)
(0 -3.115922979e-17 -7.744061536e-17)
(0 -2.542368512e-17 -7.172329855e-17)
(0 -2.022647384e-17 -6.706970955e-17)
(0 -1.545782599e-17 -6.341930383e-17)
(0 -1.101522543e-17 -6.072377598e-17)
(0 -6.802455183e-18 -5.894692394e-17)
(0 -2.370947099e-18 -5.806460314e-17)
(0 -0.02263591421 -0.0024624524)
(0 -0.02167201544 -0.006735389441)
(0 -0.02001666035 -0.01104474509)
(0 -0.01738586494 -0.01521002548)
(0 -0.01369600983 -0.01899963747)
(0 -0.00892758487 -0.02205492482)
(0 -0.00178643148 -0.02280474166)
(0 6.046802667e-05 -0.001263574556)
(0 -1.18863912e-15 -8.309480289e-18)
(0 -2.353457873e-15 -2.004602175e-16)
(0 -2.284153771e-15 -3.835068855e-16)
(0 -2.180872475e-15 -5.450382717e-16)
(0 -2.048846628e-15 -6.78712142e-16)
(0 -1.897143428e-15 -7.814900557e-16)
(0 -1.734447356e-15 -8.532061575e-16)
(0 -1.568334511e-15 -8.958789622e-16)
(0 -1.404885903e-15 -9.129520827e-16)
(0 -1.248593116e-15 -9.086036598e-16)
(0 -1.102467551e-15 -8.871992093e-16)
(0 -9.682636328e-16 -8.529082351e-16)
(0 -8.467446849e-16 -8.094704794e-16)
(0 -7.379436455e-16 -7.600814198e-16)
(0 -6.413919138e-16 -7.07363077e-16)
(0 -5.563052781e-16 -6.533897285e-16)
(0 -4.817259431e-16 -5.997445656e-16)
(0 -4.166251867e-16 -5.475901316e-16)
(0 -3.599735032e-16 -4.977412739e-16)
(0 -3.107854715e-16 -4.507338975e-16)
(0 -2.681459226e-16 -4.068860486e-16)
(0 -2.3122288e-16 -3.663499935e-16)
(0 -1.992715683e-16 -3.291552658e-16)
(0 -1.716327008e-16 -2.952433782e-16)
(0 -1.477273592e-16 -2.644952326e-16)
(0 -1.27050068e-16 -2.367523624e-16)
(0 -1.09161129e-16 -2.118331037e-16)
(0 -9.367889766e-17 -1.895446837e-16)
(0 -8.027240693e-17 -1.696920821e-16)
(0 -6.865455834e-17 -1.520843797e-16)
(0 -5.857597879e-17 -1.365391805e-16)
(0 -4.981956261e-17 -1.228855777e-16)
(0 -4.219567209e-17 -1.109660386e-16)
(0 -3.553794331e-17 -1.006374987e-16)
(0 -2.969963165e-17 -9.17718955e-17)
(0 -2.455042643e-17 -8.425631365e-17)
(0 -1.997366435e-17 -7.799287776e-17)
(0 -1.586387482e-17 -7.289849466e-17)
(0 -1.212459534e-17 -6.890452691e-17)
(0 -8.666402404e-18 -6.59564633e-17)
(0 -5.40601195e-18 -6.401363974e-17)
(0 -1.90762145e-18 -6.304904443e-17)
(0 -0.0273605184 -0.002885823788)
(0 -0.02642689826 -0.007982079605)
(0 -0.02473388378 -0.01324503584)
(0 -0.02188716456 -0.01855920246)
(0 -0.01763337826 -0.02366405181)
(0 -0.01175105951 -0.02804497467)
(0 -0.002715520865 -0.02929200573)
(0 7.19320694e-05 -0.001768834516)
(0 -1.297407848e-15 -8.728682741e-18)
(0 -2.565030037e-15 -2.53412116e-16)
(0 -2.475066083e-15 -4.829474442e-16)
(0 -2.342874424e-15 -6.812531275e-16)
(0 -2.176940426e-15 -8.407487254e-16)
(0 -1.989917518e-15 -9.585915177e-16)
(0 -1.793381476e-15 -1.035875731e-15)
(0 -1.596906515e-15 -1.076465524e-15)
(0 -1.407700836e-15 -1.085816325e-15)
(0 -1.230662575e-15 -1.06999154e-15)
(0 -1.068687379e-15 -1.034952817e-15)
(0 -9.23083974e-16 -9.861169904e-16)
(0 -7.939983781e-16 -9.281303628e-16)
(0 -6.807902759e-16 -8.647989113e-16)
(0 -5.823375076e-16 -7.991179648e-16)
(0 -4.972654239e-16 -7.333569937e-16)
(0 -4.241090198e-16 -6.691682607e-16)
(0 -3.614203143e-16 -6.076993789e-16)
(0 -3.078340348e-16 -5.496983555e-16)
(0 -2.621032652e-16 -4.956055808e-16)
(0 -2.231145385e-16 -4.456309489e-16)
(0 -1.898896127e-16 -3.998164573e-16)
(0 -1.615791881e-16 -3.580857386e-16)
(0 -1.374522204e-16 -3.202824215e-16)
(0 -1.168832647e-16 -2.861992767e-16)
(0 -9.933939485e-17 -2.555999589e-16)
(0 -8.436762238e-17 -2.282349214e-16)
(0 -7.158331397e-17 -2.038528225e-16)
(0 -6.065983484e-17 -1.822084976e-16)
(0 -5.131947153e-17 -1.630683502e-16)
(0 -4.332558741e-17 -1.462138332e-16)
(0 -3.647590921e-17 -1.314435392e-16)
(0 -3.059681839e-17 -1.185742972e-16)
(0 -2.553851423e-17 -1.074415774e-16)
(0 -2.11709199e-17 -9.789943093e-17)
(0 -1.738021205e-17 -8.982013532e-17)
(0 -1.406586612e-17 -8.309367204e-17)
(0 -1.113812299e-17 -7.762713046e-17)
(0 -8.515794629e-18 -7.334410968e-17)
(0 -6.124338255e-18 -7.018417199e-17)
(0 -3.895036305e-18 -6.81023868e-17)
(0 -1.406351789e-18 -6.706898847e-17)
(0 -0.03282897072 -0.003253133912)
(0 -0.03209451957 -0.00914516953)
(0 -0.0305958362 -0.01544219377)
(0 -0.02779332646 -0.02218740291)
(0 -0.02312105011 -0.02915398031)
(0 -0.01593985506 -0.03562281859)
(0 -0.004781802985 -0.03774795447)
(0 7.467533549e-05 -0.002801230206)
(0 -1.435049681e-15 -1.422127336e-17)
(0 -2.833048486e-15 -3.253264687e-16)
(0 -2.711994782e-15 -6.13596983e-16)
(0 -2.538673756e-15 -8.562549188e-16)
(0 -2.326185019e-15 -1.044418906e-15)
(0 -2.092270434e-15 -1.176238085e-15)
(0 -1.852321363e-15 -1.255232048e-15)
(0 -1.618275105e-15 -1.288288238e-15)
(0 -1.398411918e-15 -1.283856805e-15)
(0 -1.197729609e-15 -1.250596195e-15)
(0 -1.018593002e-15 -1.19650749e-15)
(0 -8.614411781e-16 -1.128480863e-15)
(0 -7.254266058e-16 -1.052139257e-15)
(0 -6.089312475e-16 -9.71869683e-16)
(0 -5.099499962e-16 -8.909561432e-16)
(0 -4.263555739e-16 -8.117547467e-16)
(0 -3.560683283e-16 -7.358743266e-16)
(0 -2.971552815e-16 -6.643425491e-16)
(0 -2.478797051e-16 -5.977486011e-16)
(0 -2.067180649e-16 -5.36360236e-16)
(0 -1.723567991e-16 -4.80216589e-16)
(0 -1.436776697e-16 -4.291998477e-16)
(0 -1.197375325e-16 -3.830893731e-16)
(0 -9.974623885e-17 -3.416017551e-16)
(0 -8.304489669e-17 -3.044198839e-16)
(0 -6.908571272e-17 -2.712136141e-16)
(0 -5.741399258e-17 -2.416541042e-16)
(0 -4.765247392e-17 -2.15423468e-16)
(0 -3.948793463e-17 -1.92221002e-16)
(0 -3.265989387e-17 -1.717669483e-16)
(0 -2.695116775e-17 -1.538045167e-16)
(0 -2.218002669e-17 -1.381007011e-16)
(0 -1.819371036e-17 -1.244462866e-16)
(0 -1.486307701e-17 -1.126553368e-16)
(0 -1.207818953e-17 -1.025643706e-16)
(0 -9.744667539e-18 -9.403138077e-17)
(0 -7.780659497e-18 -8.693480132e-17)
(0 -6.11431246e-18 -8.117250212e-17)
(0 -4.681636867e-18 -7.666086542e-17)
(0 -3.424679521e-18 -7.333398315e-17)
(0 -2.29082843e-18 -7.114300101e-17)
(0 -8.7422312e-19 -7.005562415e-17)
(0 -0.03889893744 -0.003459768183)
(0 -0.03865196114 -0.009962874501)
(0 -0.03777857841 -0.01726696304)
(0 -0.03557336633 -0.0257339325)
(0 -0.03092185731 -0.03533743393)
(0 -0.02245582915 -0.0451055702)
(0 -0.009689080426 -0.04880888317)
(0 4.509404773e-05 -0.005264606902)
(0 -1.608484533e-15 -3.18037013e-17)
(0 -3.174092994e-15 -4.265019765e-16)
(0 -3.005994533e-15 -7.898336443e-16)
(0 -2.773696347e-15 -1.085716313e-15)
(0 -2.496923592e-15 -1.304407674e-15)
(0 -2.20073066e-15 -1.446693468e-15)
(0 -1.905431629e-15 -1.520518596e-15)
(0 -1.625531272e-15 -1.537597687e-15)
(0 -1.370008794e-15 -1.51072983e-15)
(0 -1.14331326e-15 -1.452034553e-15)
(0 -9.465720471e-16 -1.37200647e-15)
(0 -7.787157409e-16 -1.279165964e-15)
(0 -6.373871978e-16 -1.180081729e-15)
(0 -5.196071624e-16 -1.079589188e-15)
(0 -4.222225713e-16 -9.810860734e-16)
(0 -3.421836072e-16 -8.868346161e-16)
(0 -2.766968222e-16 -7.982341544e-16)
(0 -2.232945888e-16 -7.160497306e-16)
(0 -1.798517217e-16 -6.405946593e-16)
(0 -1.445712531e-16 -5.718712258e-16)
(0 -1.159541503e-16 -5.096761189e-16)
(0 -9.276239684e-17 -4.536775782e-16)
(0 -7.398109551e-17 -4.03470622e-16)
(0 -5.878273125e-17 -3.58615718e-16)
(0 -4.649512362e-17 -3.186652009e-16)
(0 -3.657361508e-17 -2.83180778e-16)
(0 -2.857747629e-17 -2.517446554e-16)
(0 -2.215021177e-17 -2.239661706e-16)
(0 -1.70033151e-17 -1.994853141e-16)
(0 -1.290298626e-17 -1.779741425e-16)
(0 -9.659340237e-18 -1.59136804e-16)
(0 -7.117679119e-18 -1.427086851e-16)
(0 -5.151454051e-18 -1.284550387e-16)
(0 -3.656598214e-18 -1.161693443e-16)
(0 -2.54696392e-18 -1.056715699e-16)
(0 -1.750642782e-18 -9.680645534e-17)
(0 -1.206987476e-18 -8.944189251e-17)
(0 -8.641870838e-19 -8.34674552e-17)
(0 -6.772756563e-19 -7.879311153e-17)
(0 -6.064738456e-19 -7.534813909e-17)
(0 -6.166773003e-19 -7.308025466e-17)
(0 -3.189749254e-19 -7.195496324e-17)
(0 -0.04521789755 -0.003340176204)
(0 -0.04589868177 -0.009991836316)
(0 -0.04637074318 -0.01803791825)
(0 -0.04579357063 -0.02841588195)
(0 -0.04214095484 -0.04164452244)
(0 -0.03321309003 -0.05643663175)
(0 -0.02128254237 -0.06316616396)
(0 -7.521048925e-05 -0.0114841216)
(0 -1.826321672e-15 -7.589092006e-17)
(0 -3.61226757e-15 -5.730048501e-16)
(0 -3.371209119e-15 -1.033493462e-15)
(0 -3.053247786e-15 -1.39231761e-15)
(0 -2.687162173e-15 -1.640767038e-15)
(0 -2.308381355e-15 -1.785591153e-15)
(0 -1.943225582e-15 -1.842545977e-15)
(0 -1.608486339e-15 -1.830857534e-15)
(0 -1.312848785e-15 -1.769438377e-15)
(0 -1.059006249e-15 -1.674815546e-15)
(0 -8.457244127e-16 -1.560327605e-15)
(0 -6.695164375e-16 -1.436103472e-15)
(0 -5.258498297e-16 -1.30943975e-15)
(0 -4.099355916e-16 -1.185325043e-15)
(0 -3.17195424e-16 -1.066968798e-15)
(0 -2.435036549e-16 -9.562668332e-16)
(0 -1.852834428e-16 -8.541804033e-16)
(0 -1.395157864e-16 -7.610293392e-16)
(0 -1.037012003e-16 -6.767103516e-16)
(0 -7.579952459e-17 -6.008547916e-16)
(0 -5.41631515e-17 -5.329397225e-16)
(0 -3.747217277e-17 -4.723641819e-16)
(0 -2.467567225e-17 -4.185001536e-16)
(0 -1.494081775e-17 -3.707255492e-16)
(0 -7.609956658e-18 -3.284446299e-16)
(0 -2.165167195e-18 -2.9109982e-16)
(0 1.800614763e-18 -2.581777342e-16)
(0 4.60686741e-18 -2.292114071e-16)
(0 6.504093537e-18 -2.03780106e-16)
(0 7.688616204e-18 -1.815076749e-16)
(0 8.314289668e-18 -1.620600514e-16)
(0 8.501738582e-18 -1.451423852e-16)
(0 8.345630437e-18 -1.304960367e-16)
(0 7.920391841e-18 -1.178956378e-16)
(0 7.28469938e-18 -1.071463228e-16)
(0 6.485009826e-18 -9.808119781e-17)
(0 5.558340643e-18 -9.055908263e-17)
(0 4.534468524e-18 -8.446254268e-17)
(0 3.437679244e-18 -7.969621673e-17)
(0 2.288177353e-18 -7.618543853e-17)
(0 1.10234743e-18 -7.387514727e-17)
(0 2.510683018e-19 -7.27290802e-17)
(0 -0.05110777557 -0.002661516848)
(0 -0.05330577759 -0.008557210969)
(0 -0.05620599912 -0.0166210075)
(0 -0.05895836741 -0.02873481122)
(0 -0.0582157298 -0.04644597674)
(0 -0.05231615589 -0.06815305811)
(0 -0.04700820943 -0.08140578304)
(0 -0.0004230253895 -0.02685470872)
(0 -2.100448326e-15 -1.84450088e-16)
(0 -4.183702901e-15 -7.92449551e-16)
(0 -3.825307293e-15 -1.378811272e-15)
(0 -3.380969924e-15 -1.809218235e-15)
(0 -2.890197136e-15 -2.080707707e-15)
(0 -2.402509599e-15 -2.212341241e-15)
(0 -1.95069801e-15 -2.233218263e-15)
(0 -1.552423671e-15 -2.173859895e-15)
(0 -1.213966806e-15 -2.061366345e-15)
(0 -9.34202488e-16 -1.917477522e-15)
(0 -7.078599723e-16 -1.75839897e-15)
(0 -5.278278862e-16 -1.59549205e-15)
(0 -3.866087688e-16 -1.436257663e-15)
(0 -2.771362097e-16 -1.285309071e-15)
(0 -1.931643618e-16 -1.145202032e-15)
(0 -1.29395213e-16 -1.017086882e-15)
(0 -8.145932825e-17 -9.011935929e-16)
(0 -4.582453706e-17 -7.971784142e-16)
(0 -1.967717403e-17 -7.043636236e-16)
(0 -8.00623986e-19 -6.218985084e-16)
(0 1.253645944e-17 -5.488641974e-16)
(0 2.167717202e-17 -4.843395186e-16)
(0 2.765753715e-17 -4.274404134e-16)
(0 3.127279245e-17 -3.773417954e-16)
(0 3.313060556e-17 -3.332880255e-16)
(0 3.36932806e-17 -2.945962078e-16)
(0 3.33109366e-17 -2.606551293e-16)
(0 3.224741645e-17 -2.309217043e-16)
(0 3.070041716e-17 -2.049161297e-16)
(0 2.88170683e-17 -1.822165178e-16)
(0 2.670594943e-17 -1.624534765e-16)
(0 2.444633557e-17 -1.45304918e-16)
(0 2.209529336e-17 -1.304912499e-16)
(0 1.969311576e-17 -1.177710246e-16)
(0 1.726747605e-17 -1.069370736e-16)
(0 1.483659736e-17 -9.781312735e-17)
(0 1.241166766e-17 -9.025090142e-17)
(0 9.998678823e-18 -8.412762536e-17)
(0 7.599828496e-18 -7.934398704e-17)
(0 5.214595606e-18 -7.582246601e-17)
(0 2.839681023e-18 -7.350603181e-17)
(0 8.27092146e-19 -7.23571874e-17)
(0 -0.05543504347 -0.00114738475)
(0 -0.05979388049 -0.004769002537)
(0 -0.06652946589 -0.01135144543)
(0 -0.07497763935 -0.02406621764)
(0 -0.08070643026 -0.04560346915)
(0 -0.08792411384 -0.075148072)
(0 -0.09763286411 -0.1040008843)
(0 -0.001299024608 -0.06220413008)
(0 -2.446602879e-15 -4.382468872e-16)
(0 -4.93691212e-15 -1.132455974e-15)
(0 -4.387977803e-15 -1.880140106e-15)
(0 -3.755144221e-15 -2.384929166e-15)
(0 -3.090285179e-15 -2.660455254e-15)
(0 -2.460891912e-15 -2.749840969e-15)
(0 -1.904744236e-15 -2.704142789e-15)
(0 -1.43663442e-15 -2.570023797e-15)
(0 -1.056466412e-15 -2.384716817e-15)
(0 -7.560388735e-16 -2.175353093e-15)
(0 -5.237389411e-16 -1.960317766e-15)
(0 -3.473751307e-16 -1.751222408e-15)
(0 -2.15666851e-16 -1.554800037e-15)
(0 -1.188799613e-16 -1.374458622e-15)
(0 -4.897323429e-17 -1.211448087e-15)
(0 5.047846458e-19 -1.065688088e-15)
(0 3.462502466e-17 -9.363305272e-16)
(0 5.731418294e-17 -8.22128176e-16)
(0 7.157870552e-17 -7.216677898e-16)
(0 7.969990158e-17 -6.335116759e-16)
(0 8.33958383e-17 -5.562791093e-16)
(0 8.395161129e-17 -4.886892507e-16)
(0 8.232205097e-17 -4.295801097e-16)
(0 7.921157008e-17 -3.779131071e-16)
(0 7.513563093e-17 -3.32769393e-16)
(0 7.0467729e-17 -2.933418026e-16)
(0 6.547511829e-17 -2.58924845e-16)
(0 6.034586699e-17 -2.289041548e-16)
(0 5.520928001e-17 -2.027462242e-16)
(0 5.015126949e-17 -1.799888514e-16)
(0 4.522588952e-17 -1.602325052e-16)
(0 4.046396509e-17 -1.431326695e-16)
(0 3.587952381e-17 -1.283931495e-16)
(0 3.14745682e-17 -1.15760283e-16)
(0 2.724259662e-17 -1.050179797e-16)
(0 2.317118199e-17 -9.598350821e-17)
(0 1.924384264e-17 -8.850395115e-17)
(0 1.54413829e-17 -8.245325805e-17)
(0 1.174283859e-17 -7.772983277e-17)
(0 8.126132587e-18 -7.425460238e-17)
(0 4.567626039e-18 -7.196952392e-17)
(0 1.399912708e-18 -7.083649474e-17)
(0 -0.05652192943 0.001441380691)
(0 -0.06348037851 0.002280772391)
(0 -0.07541374322 -0.0002505655232)
(0 -0.09189861492 -0.01032671842)
(0 -0.1102816375 -0.03059048867)
(0 -0.150455602 -0.06703272157)
(0 -0.1807447077 -0.1330446129)
(0 -0.003260089332 -0.1353310388)
(0 -2.896480874e-15 -9.936877164e-16)
(0 -5.938239345e-15 -1.676417938e-15)
(0 -5.077780485e-15 -2.624560862e-15)
(0 -4.161285072e-15 -3.189760016e-15)
(0 -3.255108939e-15 -3.426304402e-15)
(0 -2.446197134e-15 -3.422446155e-15)
(0 -1.770880837e-15 -3.263534377e-15)
(0 -1.232997699e-15 -3.017425252e-15)
(0 -8.192961021e-16 -2.732166987e-15)
(0 -5.098034369e-16 -2.438933578e-15)
(0 -2.837292876e-16 -2.156320636e-15)
(0 -1.223101567e-16 -1.894296224e-15)
(0 -9.844981905e-18 -1.657272191e-15)
(0 6.621573954e-17 -1.446283982e-15)
(0 1.156061718e-16 -1.260447553e-15)
(0 1.457223473e-16 -1.097889004e-15)
(0 1.621005838e-16 -9.563132664e-16)
(0 1.688382004e-16 -8.333363019e-16)
(0 1.68939326e-16 -7.266676217e-16)
(0 1.645880565e-16 -6.342010314e-16)
(0 1.573588846e-16 -5.540509624e-16)
(0 1.483761716e-16 -4.845578988e-16)
(0 1.384336807e-16 -4.242773252e-16)
(0 1.280835091e-16 -3.71960833e-16)
(0 1.177019101e-16 -3.265343934e-16)
(0 1.075378287e-16 -2.870765773e-16)
(0 9.774858438e-17 -2.527981603e-16)
(0 8.842603718e-17 -2.230237629e-16)
(0 7.961572054e-17 -1.971757235e-16)