/*--------------------------------*- C++ -*----------------------------------*\
  =========                 |
  \\      /  F ield         | OpenFOAM: The Open Source CFD Toolbox
   \\    /   O peration     | Website:  https://openfoam.org
    \\  /    A nd           | Version:  6
     \\/     M anipulation  |
\*---------------------------------------------------------------------------*/
FoamFile
{
    version     2.0;
    format      ascii;
    class       volScalarField;
    location    "0.01";
    object      ViscousDissipation;
}
// * * * * * * * * * * * * * * * * * * * * * * * * * * * * * * * * * * * * * //

dimensions      [1 -1 -3 0 0 0 0];

internalField   nonuniform List<scalar> 
2500
(
2.404929533e-06
1.276528858e-05
2.888571859e-05
5.027589542e-05
7.146506838e-05
0.0001013096868
7.666513054e-05
2.549201168e-06
3.114223177e-06
1.798949845e-27
1.942942162e-29
3.829771835e-29
6.186414798e-29
8.662826244e-29
1.099079291e-28
1.295346098e-28
1.440645506e-28
1.528292233e-28
1.558559376e-28
1.537067888e-28
1.472860151e-28
1.37655976e-28
1.258870361e-28
1.129520443e-28
9.966495964e-29
8.665643675e-29
7.437637168e-29
6.311340645e-29
5.302297457e-29
4.415767625e-29
3.649595204e-29
2.99668395e-29
2.446993462e-29
1.989055564e-29
1.611060752e-29
1.301587241e-29
1.050049967e-29
8.469413224e-30
6.839248046e-30
5.538306581e-30
4.505909616e-30
3.691415937e-30
3.053104552e-30
2.557054367e-30
2.176122957e-30
1.889136179e-30
1.680527412e-30
1.541214983e-30
1.474068912e-30
1.578188458e-30
8.053616867e-06
2.272065382e-05
3.908779061e-05
6.072144799e-05
8.221121197e-05
0.0001136378612
9.471201795e-05
1.455603325e-05
2.238568881e-05
1.835888239e-27
2.875998074e-29
4.753288744e-29
7.09416027e-29
9.541607979e-29
1.182600043e-28
1.373114535e-28
1.511523899e-28
1.591528046e-28
1.613833184e-28
1.58446916e-28
1.512813115e-28
1.409725152e-28
1.286045114e-28
1.15155023e-28
1.014361737e-28
8.8072265e-29
7.550428907e-29
6.401098669e-29
5.373798865e-29
4.472887392e-29
3.69541975e-29
3.033636609e-29
2.476956641e-29
2.013480998e-29
1.631063976e-29
1.318025499e-29
1.063584572e-29
8.580864029e-30
6.930846593e-30
5.613278854e-30
4.566872521e-30
3.740526503e-30
3.092158525e-30
2.587529668e-30
2.199129703e-30
1.905125232e-30
1.688207889e-30
1.533435359e-30
1.460361854e-30
2.396704559e-30
1.985464343e-05
4.374859972e-05
6.055139212e-05
8.262682472e-05
0.0001046168794
0.0001389149801
0.0001334774349
4.116525711e-05
6.418355882e-05
1.91187977e-27
4.869188001e-29
6.713806625e-29
9.006467934e-29
1.137766129e-28
1.355551502e-28
1.532611994e-28
1.655381012e-28
1.718411331e-28
1.723331432e-28
1.677017071e-28
1.589518709e-28
1.4721551e-28
1.336012554e-28
1.19093412e-28
1.044971315e-28
9.042086635e-29
7.728498195e-29
6.534599099e-29
5.472789578e-29
4.545458468e-29
3.747952413e-29
3.071082256e-29
2.503104491e-29
2.031197637e-29
1.642497675e-29
1.32477431e-29
1.066830812e-29
8.587018218e-30
6.917111536e-30
5.584384388e-30
4.526312332e-30
3.690888769e-30
3.035360274e-30
2.524972644e-30
2.13178948e-30
1.833598153e-30
1.612869617e-30
1.45565564e-30
1.380740274e-30
3.98321881e-30
4.038867515e-05
8.03264211e-05
9.798655347e-05
0.0001209918359
0.0001440371636
0.000183593378
0.0002016826663
8.785465648e-05
0.0001373185309
2.032997716e-27
8.201011896e-29
9.971397354e-29
1.216042617e-28
1.438116231e-28
1.636061583e-28
1.789063991e-28
1.884690656e-28
1.918937553e-28
1.894917591e-28
1.82081483e-28
1.707678997e-28
1.567471718e-28
1.41158513e-28
1.24989105e-28
1.090269207e-28
9.385070454e-29
7.984495097e-29
6.722892272e-29
5.609119695e-29
4.642392009e-29
3.815333667e-29
3.116498911e-29
2.532323826e-29
2.048550836e-29
1.651203905e-29
1.327205093e-29
1.064720106e-29
8.533094642e-30
6.839478097e-30
5.489596977e-30
4.419075756e-30
3.574571231e-30
2.912368611e-30
2.397026988e-30
2.000135796e-30
1.699214522e-30
1.476780671e-30
1.319588155e-30
1.245881944e-30
6.220422754e-30
7.280942868e-05
0.0001384210107
0.0001579634217
0.0001832054386
0.0002088152183
0.0002578032519
0.0003140790109
0.000164464994
0.0002562517683
2.208997962e-27
1.33650889e-28
1.498240355e-28
1.696849047e-28
1.891474527e-28
2.055146322e-28
2.168312379e-28
2.220476035e-28
2.209861151e-28
2.141727455e-28
2.026047774e-28
1.875154521e-28
1.701757104e-28
1.517517592e-28
1.332203839e-28
1.153335272e-28
9.861912076e-29
8.340481363e-29
6.985327752e-29
5.8000746e-29
4.779340039e-29
3.911867263e-29
3.183032824e-29
2.576735388e-29
2.076732656e-29
1.667522811e-29
1.334871999e-29
1.066081062e-29
8.500702828e-30
6.773446428e-30
5.398868564e-30
4.310122509e-30
3.452089941e-30
2.779790454e-30
2.256892713e-30
1.854380546e-30
1.549401572e-30
1.324314975e-30
1.165894316e-30
1.090241732e-30
8.993770053e-30
0.0001218482633
0.0002271434282
0.0002508114938
0.0002813222841
0.0003130942592
0.0003792437289
0.0004957009007
0.0002875965299
0.0004453751922
2.45518676e-27
2.116871686e-28
2.2483597e-28
2.408483498e-28
2.554038246e-28
2.659532651e-28
2.707996669e-28
2.692136438e-28
2.613464411e-28
2.480154614e-28
2.304421072e-28
2.100046098e-28
1.880429249e-28
1.657290801e-28
1.439995064e-28
1.235367253e-28
1.047848455e-28
8.798441114e-29
7.321520442e-29
6.043915633e-29
4.953871358e-29
4.034847418e-29
3.26795887e-29
2.633743436e-29
2.113357235e-29
1.689316173e-29
1.345896097e-29
1.0692902e-29
8.476035622e-30
6.707462659e-30
5.30270075e-30
4.191801677e-30
3.317428815e-30
2.633025915e-30
2.101152679e-30
1.692024694e-30
1.382271106e-30
1.153909524e-30
9.934712638e-31
9.14350352e-31
1.214044294e-29
0.0001935634651
0.000358783487
0.0003914337108
0.0004340788395
0.0004804737563
0.0005788287537
0.0007881476826
0.0004850176986
0.000747189578
2.792841329e-27
3.289844109e-28
3.365837313e-28
3.454767665e-28
3.513448962e-28
3.520733369e-28
3.464665483e-28
3.343086925e-28
3.162160759e-28
2.93376449e-28
2.672638085e-28
2.393907319e-28
2.111291623e-28
1.836052572e-28
1.576580818e-28
1.338449497e-28
1.12475546e-28
9.365981387e-29
7.735873847e-29
6.343122853e-29
5.167360019e-29
4.185050954e-29
3.371764384e-29
2.703725653e-29
2.158792988e-29
1.716995404e-29
1.360755788e-29
1.074900844e-29
8.465368181e-30
6.648492709e-30
5.208679154e-30
4.072239811e-30
3.179173841e-30
2.481036849e-30
1.939057882e-30
1.522520416e-30
1.207403646e-30
9.752692169e-31
8.123220796e-31
7.288589181e-31
1.547213737e-29
0.0002944329189
0.0005480137509
0.0005999728912
0.0006700049708
0.0007507639013
0.0009113500502
0.001259022062
0.0008038637548
0.001246828389
3.259481288e-27
5.070862588e-28
5.044364235e-28
5.001341181e-28
4.905953376e-28
4.74709433e-28
4.521848604e-28
4.235889494e-28
3.9015515e-28
3.534953781e-28
3.153160629e-28
2.771953044e-28
2.404420731e-28
2.060330944e-28
1.746098955e-28
1.465148201e-28
1.218469513e-28
1.005235805e-28
8.233795103e-29
6.700832345e-29
5.42165565e-29
4.363639983e-29
3.495277829e-29
2.787378536e-29
2.213713909e-29
1.751267094e-29
1.380214327e-29
1.083740024e-29
8.477592291e-30
6.605992848e-30
5.126751951e-30
3.961801398e-30
3.048032831e-30
2.334806298e-30
1.781805254e-30
1.357228464e-30
1.036295298e-30
8.0003512e-31
6.342879436e-31
5.458806666e-31
1.878767651e-29
0.0004287191967
0.0008085558645
0.0009011903898
0.001031790182
0.001192530158
0.001474513546
0.002011487196
0.001326473202
0.002162793824
3.923881309e-27
7.854881434e-28
7.611549721e-28
7.3163918e-28
6.944821329e-28
6.50306462e-28
6.002623111e-28
5.460099589e-28
4.895099367e-28
4.327588484e-28
3.775601717e-28
3.253727478e-28
2.772435587e-28
2.338099239e-28
1.953479354e-28
1.618445112e-28
1.330754205e-28
1.086777627e-28
8.821080688e-29
7.120310797e-29
5.718635679e-29
4.571776851e-29
3.639332581e-29
2.885418774e-29
2.278830041e-29
1.792886354e-29
1.405091598e-29
1.096695473e-29
8.522215419e-30
6.590020685e-30
5.067439631e-30
3.87138687e-30
2.93521231e-30
2.205783887e-30
1.641036419e-30
1.20794489e-30
8.808748319e-31
6.40263294e-31
4.715544564e-31
3.777549543e-31
2.188499641e-29
0.0005927114025
0.001144864912
0.001320814666
0.001582544388
0.001927087869
0.002438610612
0.003178727494
0.002204120628
0.004232449532
4.881271295e-27
1.231760257e-27
1.161627558e-27
1.083612019e-27
9.965956458e-28
9.039279314e-28
8.088495478e-28
7.143554559e-28
6.230539875e-28
5.370438298e-28
4.578433559e-28
3.863865014e-28
3.230772138e-28
2.678822071e-28
2.204397439e-28
1.801664795e-28
1.463509207e-28
1.182281274e-28
9.503476299e-29
7.604632909e-29
6.05997179e-29
4.81045325e-29
3.804637786e-29
2.998480608e-29
2.354800862e-29
1.84257933e-29
1.436191393e-29
1.114645036e-29
8.608660919e-30
6.610533301e-30
5.041127253e-30
3.811717406e-30
2.851693951e-30
2.105152005e-30
1.528089359e-30
1.086131404e-30
7.527071752e-31
5.076091843e-31
3.358559124e-31
2.363229838e-31
2.457328688e-29
0.0007647805106
0.001536459587
0.001877146513
0.002416519813
0.003174211998
0.004079065695
0.004871910757
0.003749218028
0.01059132896
6.283794849e-27
1.95831646e-27
1.797676341e-27
1.627527528e-27
1.450267412e-27
1.273983231e-27
1.104764182e-27
9.46835175e-28
8.028407588e-28
6.741414874e-28
5.610894213e-28
4.63280923e-28
3.797846991e-28
3.093392468e-28
2.505142901e-28
2.018343085e-28
1.618662148e-28
1.292760654e-28
1.028610174e-28
8.156283278e-29
6.446855938e-29
5.080298821e-29
3.99163964e-29
3.127009439e-29
2.442147919e-29
1.900966499e-29
1.474230268e-29
1.138388074e-29
8.745590514e-30
6.676709208e-30
5.057381363e-30
3.792644618e-30
2.80753563e-30
2.043116776e-30
1.453277463e-30
1.002181062e-30
6.622471836e-31
4.125773854e-31
2.377361675e-31
1.3220938e-31
2.668475859e-29
0.000893365705
0.001917286222
0.002570975079
0.003683917822
0.00532991197
0.0068037747
0.007150719371
0.006802756512
0.03734247326
8.401092024e-27
3.171294193e-27
2.829573899e-27
2.483232961e-27
2.141324426e-27
1.81975451e-27
1.527700196e-27
1.269305947e-27
1.04529724e-27
8.542471785e-28
6.934860525e-28
5.597290656e-28
4.494970781e-28
3.593872252e-28
2.862352018e-28
2.272007631e-28
1.798006434e-28
1.419072722e-28
1.117268568e-28
8.776645739e-29
6.879657978e-29
5.381346127e-29
4.200352912e-29
3.271133657e-29
2.541150597e-29
1.968472397e-29
1.519755285e-29
1.168567771e-29
8.940153365e-30
6.796212288e-30
5.124222561e-30
3.822428064e-30
2.811151415e-30
2.028188573e-30
1.425169088e-30
9.646963761e-31
6.181176192e-31
3.638031208e-31
1.858381449e-31
7.41202551e-32
2.808534609e-29
0.0008951472608
0.002170625906
0.00339686427
0.005651847024
0.009058346815
0.01146993776
0.01100561409
0.01452111995
0.1775604042
1.171258843e-26
5.265318193e-27
4.545996475e-27
3.856061342e-27
3.20970849e-27
2.633291714e-27
2.136397232e-27
1.718259659e-27
1.372545184e-27
1.09046444e-27
8.626205498e-28
6.800225142e-28
5.345804253e-28
4.19292025e-28
3.282543785e-28
2.565841637e-28
2.002972072e-28
1.56176675e-28
1.216459185e-28
9.465375728e-29
7.357515464e-29
5.712753888e-29
4.430164796e-29
3.430516743e-29
2.651727043e-29
2.045223909e-29
1.573053003e-29
1.205586956e-29
9.197190332e-30
6.974429005e-30
5.24738765e-30
3.907017032e-30
2.868609166e-30
2.066492454e-30
1.449908586e-30
9.798194875e-31
6.264479379e-31
3.673997736e-31
1.862599804e-31
6.820570079e-32
2.868365941e-29
0.0006970299947
0.002204095044
0.004443950858
0.008803437147
0.01548919093
0.02253739881
0.02501899812
0.04028723895
0.9705274807
1.698134388e-26
9.017632315e-27
7.479779638e-27
6.104092921e-27
4.885901114e-27
3.857914436e-27
3.017404929e-27
2.344618659e-27
1.813828827e-27
1.399197708e-27
1.077475173e-27
8.289499298e-28
6.375069389e-28
4.902766247e-28
3.771395593e-28
2.902204843e-28
2.234320855e-28
1.720894511e-28
1.32596461e-28
1.021967096e-28
7.877870072e-29
6.072500571e-29
4.679620927e-29
3.60419783e-29
2.773307394e-29
2.130943637e-29
1.634055822e-29
1.249523334e-29
9.518450979e-30
7.213735437e-30
5.429637115e-30
4.049391667e-30
2.983000048e-30
2.161161819e-30
1.530630553e-30
1.050664079e-30
6.903214343e-31
4.264190211e-31
2.420256542e-31
1.175370808e-31
2.843755216e-29
0.0003824897027
0.002234852417
0.006179684016
0.01394558264
0.02858555398
0.06269470401
0.08774888986
0.1330917862
5.205017199
2.537478929e-26
1.600366158e-26
1.263757023e-26
9.861165725e-27
7.551885913e-27
5.716276187e-27
4.296888563e-27
3.218065659e-27
2.406701754e-27
1.800183071e-27
1.348134792e-27
1.011487964e-27
7.606158136e-28
5.733580225e-28
4.332704022e-28
3.281997644e-28
2.491766636e-28
1.89578622e-28
1.445081474e-28
1.103348144e-28
8.43598161e-29
6.457071308e-29
4.946211018e-29
3.790434544e-29
2.904710775e-29
2.224848273e-29
1.70225462e-29
1.3000523e-29
9.90189946e-30
7.512865634e-30
5.670175464e-30
4.249027433e-30
3.153940779e-30
2.311873028e-30
1.667022107e-30
1.176901124e-30
8.093806066e-31
5.404721013e-31
3.527183845e-31
2.217476881e-31
2.73577785e-29
0.0004792991044
0.003384689348
0.009966500765
0.02344772988
0.06722130924
0.1939389177
0.3026536395
0.4197264164
24.63254284
3.843766073e-26
2.956190677e-26
2.198089097e-26
1.626580062e-26
1.1842062e-26
8.551075373e-27
6.15498259e-27
4.430873327e-27
3.197203122e-27
2.315716935e-27
1.684989768e-27
1.23220934e-27
9.057271452e-28
6.691121528e-28
4.967011694e-28
3.703879686e-28
2.773537448e-28
2.084806624e-28
1.572483966e-28
1.189673222e-28
9.024469921e-29
6.861173311e-29
5.226179643e-29
3.986567592e-29
3.044041657e-29
2.325565019e-29
1.776628872e-29
1.356387224e-29
1.034119773e-29
7.866461323e-30
5.964257402e-30
4.501549804e-30
3.377270101e-30
2.514577765e-30
1.855085856e-30
1.354547617e-30
9.796371063e-31
7.055566333e-31
5.143200531e-31
3.76879436e-31
2.550836359e-29
0.002227587017
0.008265259605
0.01893250471
0.04682160003
0.1772260188
0.4686797504
0.8189149418
1.081177713
96.89982147
6.04112427e-26
5.713865494e-26
3.944433418e-26
2.738264673e-26
1.880357167e-26
1.287841431e-26
8.839272777e-27
6.098591957e-27
4.237572182e-27
2.968412912e-27
2.097164278e-27
1.494315185e-27
1.073585122e-27
7.773663108e-28
5.669953009e-28
4.163396019e-28
3.075919175e-28
2.28511787e-28
1.706100154e-28
1.279466753e-28
9.632954814e-29
7.277526567e-29
5.51439489e-29
4.188931194e-29
3.188624222e-29
2.43108105e-29
1.855606772e-29
1.417247835e-29
1.082545787e-29
8.264883018e-30
6.303050133e-30
4.798641247e-30
3.644994613e-30
2.761482374e-30
2.087147781e-30
1.575998373e-30
1.193523134e-30
9.141234608e-31
7.192895033e-31
5.754674124e-31
2.300350862e-29
0.007360116029
0.02049088929
0.0385008228
0.09719231625
0.3700594826
0.78987043
1.634617205
2.118036818
307.8321533
1.097264532e-25
1.167670964e-25
7.318371583e-26
4.69666261e-26
3.012747111e-26
1.944074153e-26
1.266685737e-26
8.352166581e-27
5.579223036e-27
3.776670433e-27
2.589930567e-27
1.798249452e-27
1.263143138e-27
8.968397581e-28
6.430483615e-28
4.652120352e-28
3.392848161e-28
2.492489214e-28
1.843024703e-28
1.370745703e-28
1.024788021e-28
7.696784918e-29
5.804311961e-29
4.39283571e-29
3.334994406e-29
2.538741336e-29
1.937067573e-29
1.480866676e-29
1.133934593e-29
8.694351158e-30
6.673809215e-30
5.128248726e-30
3.94552454e-30
3.041308363e-30
2.352138999e-30
1.830325691e-30
1.440205728e-30
1.155402447e-30
9.568968348e-31
8.068783171e-31
2.000108138e-29
0.01618040803
0.04041117003
0.07251257064
0.1546417561
0.4981412788
0.99219372
2.365199321
2.979445919
780.4939419
2.415676177e-25
2.519253243e-25
1.39994017e-25
8.162885543e-26
4.8373877e-26
2.920558793e-26
1.799092313e-26
1.131279329e-26
7.258361077e-27
4.747262252e-27
3.161082968e-27
2.139980168e-27
1.470768268e-27
1.024783978e-27
7.229298955e-28
5.15698729e-28
3.715647176e-28
2.701205131e-28
1.979496357e-28
1.461022346e-28
1.085261517e-28
8.107644021e-29
6.088068127e-29
4.592647189e-29
3.478967214e-29
2.645307783e-29
2.018395971e-29
1.545041173e-29
1.186359526e-29
9.137461727e-30
7.060401692e-30
5.475116738e-30
4.26421731e-30
3.339846199e-30
2.636158857e-30
2.103850533e-30
1.70616471e-30
1.415985797e-30
1.213810729e-30
1.057898847e-30
1.66929924e-29
0.04485703858
0.05990963184
0.1058899641
0.2068140197
0.3889718094
0.8838478632
3.0598053
2.550499166
1557.542795
5.98112491e-25
5.564922012e-25
2.714170697e-25
1.416713977e-25
7.683091016e-26
4.318297725e-26
2.509541176e-26
1.504120403e-26
9.273193768e-27
5.865418628e-27
3.796711499e-27
2.509235853e-27
1.689527663e-27
1.156708664e-27
8.037884158e-28
5.660037496e-28
4.033017619e-28
2.904128885e-28
2.110969412e-28
1.547364506e-28
1.14279152e-28
8.49718364e-29
6.356737381e-29
4.781981675e-29
3.615790964e-29
2.747087472e-29
2.096593672e-29
1.60723458e-29
1.237594838e-29
9.574084807e-30
7.444176659e-30
5.821639465e-30
4.584217399e-30
3.640786706e-30
2.923300414e-30
2.38096379e-30
1.976010891e-30
1.680644071e-30
1.474912926e-30
1.313547542e-30
1.32930038e-29
0.05066551902
0.06655915983
0.1107583927
0.223213983
0.2905713157
0.375235306
4.371542161
0.6500016041
2354.480043
1.710275455e-24
1.212794556e-24
5.152885485e-25
2.389716546e-25
1.183010423e-25
6.191840003e-26
3.40002012e-26
1.946425657e-26
1.155633713e-26
7.084522713e-27
4.467443789e-27
2.888211696e-27
1.90879996e-27
1.286307176e-27
8.818723959e-28
6.13882027e-28
4.331400638e-28
3.092973485e-28
2.232303183e-28
1.626524437e-28
1.195279636e-28
8.851469233e-29
6.600756634e-29
4.954019448e-29
3.740390104e-29
2.84012958e-29
2.168446445e-29
1.664723231e-29
1.28524952e-29
9.982609296e-30
7.805142983e-30
6.148989251e-30
4.88754765e-30
3.926783845e-30
3.196691043e-30
2.645149559e-30
2.233495946e-30
1.933325904e-30
1.724290647e-30
1.558060806e-30
1.002274173e-29
0.04269995935
0.05700183664
0.09123236979
0.1749819027
0.3191794825
0.1795383013
3.81399267
0.3198484071
2520.747427
5.936159277e-24
2.427082956e-24
9.054561852e-25
3.778466372e-25
1.72515911e-25
8.474335291e-26
4.423244979e-26
2.430245002e-26
1.395180183e-26
8.319216718e-27
5.126741469e-27
3.251420094e-27
2.114499952e-27
1.405703885e-27
9.527185341e-28
6.567663735e-28
4.595790541e-28
3.258811304e-28
2.338079928e-28
1.695138891e-28
1.240581935e-28
9.156401397e-29
6.810510326e-29
5.101926679e-29
3.847685059e-29
2.920480368e-29
2.230736768e-29
1.714780777e-29
1.326931886e-29
1.034144857e-29
8.123371963e-30
6.438441543e-30
5.156374387e-30
4.180673055e-30
3.439673887e-30
2.880137563e-30
2.462642194e-30
2.158270584e-30
1.946336751e-30
1.775983409e-30
7.096859534e-30
0.02670669069
0.03860737254
0.0655671027
0.116684068
0.2368652898
0.4853614248
2.295204606
2.927306679
1822.312105
1.56047677e-23
4.101297102e-24
1.405149666e-24
5.450359203e-25
2.34009672e-25
1.09235916e-25
5.467912677e-26
2.903231587e-26
1.620839443e-26
9.446476862e-27
5.713061008e-27
3.567398143e-27
2.2901889e-27
1.506122635e-27
1.011540637e-27
6.919907027e-28
4.811014827e-28
3.392813896e-28
2.423039073e-28
1.749989847e-28
1.276670367e-28
9.398754416e-29
6.977030006e-29
5.219351404e-29
3.932962998e-29
2.984474813e-29
2.280483903e-29
1.754883521e-29
1.36043071e-29
1.063067762e-29
8.380505349e-30
6.672784742e-30
5.374341126e-30
4.386745129e-30
3.637034429e-30
3.071092374e-30
2.648902679e-30
2.341146017e-30
2.126871744e-30
1.95327864e-30
4.708407481e-30
0.01135357525
0.02199262797
0.04413883991
0.09348835181
0.1173402207
0.9177151824
1.315524574
6.22074351
826.8022912
2.035442709e-23
5.947133003e-24
1.926067184e-24
7.108645467e-25
2.917491871e-25
1.310779708e-25
6.358404837e-26
3.291329425e-26
1.800237302e-26
1.031965098e-26
6.157642482e-27
3.802831929e-27
2.419219451e-27
1.578999148e-27
1.053810109e-27
7.170966477e-28
4.963381019e-28
3.487155227e-28
2.48258544e-28
1.788299489e-28
1.301810476e-28
9.567295275e-29
7.092735263e-29
5.300941514e-29
3.992260449e-29
3.029034316e-29
2.315186441e-29
1.78291583e-29
1.383894708e-29
1.08336407e-29
8.561223702e-30
6.837682351e-30
5.527848218e-30
4.531960944e-30
3.776163888e-30
3.205736276e-30
2.780252446e-30
2.470115988e-30
2.254193734e-30
2.078365781e-30
3.01548963e-30
0.002458469101
0.012825979
0.03210807008
0.08956526363
0.06401547259
1.156225395
0.9708176651
8.432863061
108.1003475
1.223614181e-23
7.467398917e-24
2.307429016e-24
8.235617608e-25
3.287261171e-25
1.444277207e-25
6.883125075e-26
3.513553452e-26
1.90066903e-26
1.079982267e-26
6.39866447e-27
3.929013366e-27
2.487734401e-27
1.617404473e-27
1.075948064e-27
7.301787811e-28
5.042445978e-28
3.535945437e-28
2.513298283e-28
1.808018091e-28
1.31473124e-28
9.653835022e-29
7.152120391e-29
5.342819442e-29
4.022710597e-29
3.051934627e-29
2.333038875e-29
1.797352164e-29
1.395990457e-29
1.093835635e-29
8.654521718e-30
6.922849365e-30
5.607152326e-30
4.606990457e-30
3.848050378e-30
3.275302711e-30
2.848112587e-30
2.536741922e-30
2.31996413e-30
2.142994348e-30
2.130221532e-30
0.002458453525
0.01282594982
0.03210801507
0.08956496847
0.06401547108
1.1562219
0.9708104902
8.432845922
108.1002265
1.223561703e-23
7.467197677e-24
2.307371544e-24
8.235490181e-25
3.287248649e-25
1.444286596e-25
6.883220474e-26
3.513617394e-26
1.900707405e-26
1.080004589e-26
6.398794633e-27
3.929090797e-27
2.48778185e-27
1.617434566e-27
1.07596784e-27
7.301922249e-28
5.042540209e-28
3.536013238e-28
2.513348123e-28
1.808055349e-28
1.314759441e-28
9.654050311e-29
7.152285547e-29
5.342946308e-29
4.022807826e-29
3.052008666e-29
2.333094613e-29
1.79739336e-29
1.39602004e-29
1.093855911e-29
8.65464973e-30
6.922917316e-30
5.607172077e-30
4.606971666e-30
3.848000968e-30
3.275229246e-30
2.84802057e-30
2.536636034e-30
2.319848428e-30
2.142876166e-30
2.110845478e-30
0.01135350767
0.02199251478
0.04413859542
0.09348763517
0.1173392644
0.917706016
1.315516145
6.220704417
826.7996182
2.035283954e-23
5.946538533e-24
1.925901042e-24
7.10828907e-25
2.917463092e-25
1.31081011e-25
6.358692765e-26
3.291518342e-26
1.800349511e-26
1.032030024e-26
6.158020264e-27
3.80305666e-27
2.419357359e-27
1.579086815e-27
1.05386788e-27
7.171360386e-28
4.963657925e-28
3.487355008e-28
2.482732665e-28
1.788409794e-28
1.301894138e-28
9.567935132e-29
7.093226961e-29
5.301319836e-29
3.992550862e-29
3.029255839e-29
2.315353517e-29
1.783039588e-29
1.383983829e-29
1.0834254e-29
8.561613538e-30
6.837892432e-30
5.527913891e-30
4.531911014e-30
3.776022023e-30
3.20552211e-30
2.779982459e-30
2.46980423e-30
2.253852401e-30
2.078016834e-30
2.957623783e-30
0.02670654188
0.03860713321
0.06556658862
0.1166827913
0.2368611925
0.4853549872
2.295207029
2.927286605
1822.302446
1.560249268e-23
4.100415527e-24
1.404901947e-24
5.449866521e-25
2.340080799e-25
1.092417528e-25
5.468397605e-26
2.903536414e-26
1.62101678e-26
9.447492533e-27
5.713649712e-27
3.567748474e-27
2.290404565e-27
1.506260404e-27
1.011631949e-27
6.920533404e-28
4.81145774e-28
3.393135197e-28
2.423277026e-28
1.750168923e-28
1.276806735e-28
9.399801199e-29
6.977837138e-29
5.219974442e-29
3.933442804e-29
2.984842026e-29
2.280761877e-29
1.755090312e-29
1.360580444e-29
1.063171607e-29
8.381174022e-30
6.673155299e-30
5.374471666e-30
4.386683113e-30
3.636818954e-30
3.07075596e-30
2.648472712e-30
2.340645918e-30
2.126321914e-30
1.952715549e-30
4.612835947e-30
0.04269977081
0.0570015341
0.09123169502
0.1749798436
0.319175384
0.1795352996
3.813967163
0.3198596052
2520.732936
5.932769853e-24
2.425946135e-24
9.051643036e-25
3.777999404e-25
1.725205211e-25
8.475301487e-26
4.423926901e-26
2.430648433e-26
1.3954081e-26
8.320504213e-27
5.12748447e-27
3.251863016e-27
2.114774166e-27
1.40588046e-27
9.528366345e-28
6.568481405e-28
4.596373872e-28
3.259237943e-28
2.338398234e-28
1.695380025e-28
1.240766653e-28
9.157826973e-29
6.811615033e-29
5.102783495e-29
3.848348024e-29
2.920990248e-29
2.23112481e-29
1.715071258e-29
1.327143888e-29
1.034293525e-29
8.124346583e-30
6.43900201e-30
5.15660034e-30
4.180629785e-30
3.43941538e-30
2.879708915e-30
2.462081547e-30
2.157610722e-30
1.945606374e-30
1.775233275e-30
6.964879745e-30
0.05066541464
0.0665589925
0.1107579235
0.223212899
0.2905689396
0.3752204937
4.371535695
0.6499595894
2354.478856
1.706950919e-24
1.211430624e-24
5.150263773e-25
2.389527889e-25
1.183178155e-25
6.193266999e-26
3.400874781e-26
1.946897587e-26
1.155891687e-26
7.085959731e-27
4.468271011e-27
2.888707218e-27
1.909109634e-27
1.286508969e-27
8.820091067e-28
6.139778908e-28
4.332092759e-28
3.093485225e-28
2.23268871e-28
1.626819032e-28
1.195507058e-28
8.853236728e-29
6.602135223e-29
4.955095328e-29
3.74122768e-29
2.840777836e-29
2.168943205e-29
1.665098076e-29
1.285525835e-29
9.984573775e-30
7.806458954e-30
6.149778495e-30
4.887909671e-30
3.926800597e-30
3.196430626e-30
2.644669164e-30
2.232844237e-30
1.932544975e-30
1.723417601e-30
1.557160359e-30
9.856150397e-30
0.04485708314
0.05990969442
0.1058901199
0.2068144277
0.3889686373
0.8838395158
3.059806071
2.550483918
1557.556672
5.962104692e-25
5.553257989e-25
2.713161923e-25
1.417063713e-25
7.686282977e-26
4.320120121e-26
2.510492803e-26
1.504614176e-26
9.275818569e-27
5.866868012e-27
3.797548385e-27
2.509742417e-27
1.68984894e-27
1.156921559e-27
8.039351415e-28
5.661083379e-28
4.033784191e-28
2.904703369e-28
2.111407406e-28
1.547702742e-28
1.143055097e-28
8.499249596e-29
6.358361463e-29
4.783258653e-29
3.616792452e-29
2.747868498e-29
2.097197117e-29
1.607694252e-29
1.237937657e-29
9.576560708e-30
7.445875314e-30
5.822703608e-30
4.584764284e-30
3.640913439e-30
2.923088169e-30
2.380481187e-30
1.97531675e-30
1.679789682e-30
1.473943874e-30
1.312542007e-30
1.309407735e-29
0.01618046976
0.04041133534
0.07251300183
0.1546426484
0.4981452013
0.9921991314
2.365196902
2.979481675
780.4993361
2.404180785e-25
2.520996996e-25
1.401661338e-25
8.171792591e-26
4.841530936e-26
2.922478719e-26
1.800009193e-26
1.131736949e-26
7.260763747e-27
4.748593317e-27
3.161861609e-27
2.140460468e-27
1.471079631e-27
1.02499504e-27
7.230785838e-28
5.158068841e-28
3.716454394e-28
2.701819815e-28
1.979971594e-28
1.461393872e-28
1.085554201e-28
8.109960731e-29
6.089905886e-29
4.594104654e-29
3.480119966e-29
2.646214615e-29
2.019103198e-29
1.545585664e-29
1.186770892e-29
9.140483802e-30
7.0625275e-30
5.476506559e-30
4.265003637e-30
3.340139445e-30
2.636051946e-30
2.103422621e-30
1.705484239e-30
1.415113023e-30
1.212799743e-30
1.056840622e-30
1.64644621e-29
0.00736015764
0.02049099906
0.03850102536
0.09719297546
0.3700628814
0.7898768771
1.634626414
2.118046453
307.8323196
1.101711448e-25
1.174009395e-25
7.341457393e-26
4.705565455e-26
3.016384203e-26
1.945662919e-26
1.267427916e-26
8.355868537e-27
5.581191885e-27
3.777785138e-27
2.590600702e-27
1.798675483e-27
1.263427932e-27
8.970385795e-28
6.431922665e-28
4.653192623e-28
3.393665471e-28
2.493123027e-28
1.843522522e-28
1.371140271e-28
1.025102654e-28
7.699302718e-29
5.806329436e-29
4.394451045e-29
3.33628405e-29
2.539765619e-29
1.937874627e-29
1.481495245e-29
1.134416098e-29
8.697952083e-30
6.676406658e-30
5.130016765e-30
3.946608033e-30
3.041828855e-30
2.352199548e-30
1.83001484e-30
1.439600794e-30
1.15457226e-30
9.559039115e-31
8.058255275e-31
1.974610326e-29
0.002227603218
0.008265302807
0.018932584
0.04682181077
0.1772269691
0.4686827052
0.8189193666
1.081174979
96.89982323
6.125031524e-26
5.751927708e-26
3.95777117e-26
2.743505168e-26
1.882589304e-26
1.288860783e-26
8.844244391e-27
6.101180455e-27
4.239010708e-27
2.969264935e-27
2.097700183e-27
1.49467111e-27
1.073832939e-27
7.775457772e-28
5.671294392e-28
4.164423574e-28
3.076721137e-28
2.285752444e-28
1.706607257e-28
1.279874742e-28
9.636251308e-29
7.280195909e-29
5.516557183e-29
4.190680405e-29
3.190034908e-29
2.432213034e-29
1.856508479e-29
1.41795874e-29
1.083098257e-29
8.269090086e-30
6.306160449e-30
4.8008387e-30
3.646433296e-30
2.762292502e-30
2.087440633e-30
1.575870435e-30
1.193059585e-30
9.134010999e-31
7.183790355e-31
5.744824431e-31
2.272562851e-29
0.0004793021713
0.00338469985
0.009966526075
0.02344778706
0.06722149404
0.1939396367
0.3026548836
0.4197265009
24.63262233
3.874759859e-26
2.96317168e-26
2.201876551e-26
1.628517503e-26
1.185189558e-26
8.556164015e-27
6.15772317e-27
4.432428689e-27
3.198138304e-27
2.316312591e-27
1.685390077e-27
1.232491361e-27
9.059338412e-28
6.692685325e-28
4.968224355e-28
3.70483769e-28
2.774304647e-28
2.085427001e-28
1.57298895e-28
1.190086017e-28
9.027852091e-29
6.863946482e-29
5.228451991e-29
3.988425901e-29
3.045556311e-29
2.326793577e-29
1.777618701e-29
1.357177485e-29
1.034742965e-29
7.871293155e-30
5.967915236e-30
4.504223314e-30
3.379119336e-30
2.515738925e-30
1.855676239e-30
1.354669894e-30
9.793830003e-31
7.050100185e-31
5.135593685e-31
3.760275521e-31
2.521147758e-29
0.000382487939
0.002234851106
0.006179688191
0.01394559602
0.02858558551
0.06269483298
0.0877491462
0.1330919773
5.205027477
2.533248756e-26
1.599925006e-26
1.264319684e-26
9.865882518e-27
7.554929195e-27
5.71816752e-27
4.298086046e-27
3.21885158e-27
2.407238742e-27
1.800564697e-27
1.348415923e-27
1.011701592e-27
7.607823518e-28
5.734904917e-28
4.333773903e-28
3.282871367e-28
2.492485715e-28
1.896381066e-28
1.445575075e-28
1.103758355e-28
8.439391604e-29
6.459903744e-29
4.948559678e-29
3.79237693e-29
2.906311368e-29
2.226160963e-29
1.703324586e-29
1.300917489e-29
9.908822729e-30
7.518329005e-30
5.674405541e-30
4.252215804e-30
3.15625019e-30
2.313442849e-30
1.667973231e-30
1.177340342e-30
8.094044983e-31
5.401703767e-31
3.521764565e-31
2.210958592e-31
2.704608914e-29
0.000697027158
0.002204090744
0.004443948234
0.008803435519
0.01548919049
0.02253741384
0.02501901948
0.04028720349
0.9705308536
1.697316372e-26
9.014502207e-27
7.478379714e-27
6.103601559e-27
4.885918198e-27
3.858159166e-27
3.017715121e-27
2.344919206e-27
1.814093195e-27
1.399421514e-27
1.077662228e-27
8.291060418e-28
6.376376187e-28
4.903864573e-28
3.772321947e-28
2.902988049e-28
2.234983878e-28
1.721455934e-28
1.326439719e-28
1.022368648e-28
7.881257659e-29
6.075351744e-29
4.682013871e-29
3.606199511e-29
2.774975215e-29
2.132326796e-29
1.635196439e-29
1.250457418e-29
9.526033854e-30
7.219822274e-30
5.43445095e-30
4.053122518e-30
2.985810304e-30
2.163191265e-30
1.53200112e-30
1.051484335e-30
6.906907603e-31
4.264312907e-31
2.417720926e-31
1.171531517e-31
2.811552114e-29
0.000895144798
0.002170621791
0.003396860594
0.005651842043
0.009058336005
0.01146990991
0.01100561973
0.01452113643
0.1775620427
1.172573654e-26
5.260775767e-27
4.54173138e-27
3.853592737e-27
3.208540286e-27
2.632835686e-27
2.136286011e-27
1.718301024e-27
1.372646673e-27
1.090583877e-27
8.627395821e-28
6.801336745e-28
5.346810978e-28
4.193817119e-28
3.283334812e-28
2.566534443e-28
2.00357551e-28
1.562289853e-28
1.216910684e-28
9.469256758e-29
7.360838357e-29
5.715587815e-29
4.432572218e-29
3.43255358e-29