/*--------------------------------*- C++ -*----------------------------------*\
  =========                 |
  \\      /  F ield         | OpenFOAM: The Open Source CFD Toolbox
   \\    /   O peration     | Website:  https://openfoam.org
    \\  /    A nd           | Version:  6
     \\/     M anipulation  |
\*---------------------------------------------------------------------------*/
FoamFile
{
    version     2.0;
    format      ascii;
    class       surfaceScalarField;
    location    "0.17";
    object      alphaPhi0.phase1;
}
// * * * * * * * * * * * * * * * * * * * * * * * * * * * * * * * * * * * * * //

dimensions      [0 3 -1 0 0 0 0];

internalField   nonuniform List<scalar> 
4900
(
-3.553770785e-20
-6.951157823e-20
-8.261739763e-21
-3.554442855e-20
-6.796403059e-22
-1.211558403e-20
3.883720579e-22
-1.859864741e-21
4.904230023e-22
-1.583586533e-22
3.041318858e-22
1.867684292e-22
3.03951081e-22
1.808047698e-25
-2.63190078e-17
1.05427416e-18
-4.330298051e-20
2.098795082e-25
-4.221394213e-20
-1.089038436e-21
-4.023835862e-20
-1.975582672e-21
-3.767658118e-20
-2.561775582e-21
-3.482163959e-20
-2.854938863e-21
-3.189991245e-20
-2.921723672e-21
-2.905834669e-20
-2.841561727e-21
-2.637742385e-20
-2.680918433e-21
-2.389172874e-20
-2.485690572e-21
-2.16084303e-20
-2.283294032e-21
-1.952051783e-20
-2.087908474e-21
-1.761498094e-20
-1.905533625e-21
-1.587725419e-20
-1.737724553e-21
-1.429329307e-20
-1.583960334e-21
-1.285031989e-20
-1.442974147e-21
-1.153691384e-20
-1.313409138e-21
-1.034283521e-20
-1.194084193e-21
-9.258785524e-21
-1.084058067e-21
-8.276193214e-21
-9.826038513e-22
-7.387054099e-21
-8.891541301e-22
-6.583827112e-21
-8.032457727e-22
-5.859374163e-21
-7.244757719e-22
-5.206930623e-21
-6.524706379e-22
-4.620094309e-21
-5.868678863e-22
-4.0928237e-21
-5.273068179e-22
-3.619438949e-21
-4.734257158e-22
-3.194621708e-21
-4.248630362e-22
-2.813411597e-21
-3.812607638e-22
-2.471198432e-21
-3.422686571e-22
-2.163710126e-21
-3.075485667e-22
-1.886996687e-21
-2.767783514e-22
-1.637410927e-21
-2.49655159e-22
-1.4115866e-21
-2.258979962e-22
-1.206414671e-21
-2.052496128e-22
-1.019018285e-21
-1.874777797e-22
-8.467269786e-22
-1.723760693e-22
-6.870504765e-22
-1.597642547e-22
-5.376523504e-22
-1.49488457e-22
-3.963236188e-22
-1.414212012e-22
-2.609560821e-22
-1.354616824e-22
-1.295143386e-22
-1.315370838e-22
-1.296103753e-22
-1.166678028e-19
-1.05594799e-19
-6.288850475e-20
-9.278894759e-20
-1.652301149e-20
-7.335995725e-20
-8.236307043e-22
-3.220282678e-20
-1.977279858e-22
-1.73401862e-21
-2.999777365e-23
9.236087453e-23
-7.848908599e-22
7.550740314e-22
-1.284779583e-17
-3.601179e-19
-4.438950016e-20
3.144928002e-25
-4.30999842e-20
-2.378552794e-21
-4.08245865e-20
-4.250977051e-21
-3.797007567e-20
-5.416281527e-21
-3.488882008e-20
-5.936188317e-21
-3.182008205e-20
-5.990454608e-21
-2.889793258e-20
-5.763703521e-21
-2.618233301e-20
-5.39651015e-21
-2.368940313e-20
-4.978612916e-21
-2.141307477e-20
-4.55961567e-21
-1.933815077e-20
-4.162827149e-21
-1.744716925e-20
-3.79651179e-21
-1.57234836e-20
-3.461409443e-21
-1.415230004e-20
-3.155146349e-21
-1.272074891e-20
-2.874531587e-21
-1.141758412e-20
-2.616584719e-21
-1.023280538e-20
-2.378878821e-21
-9.157328406e-21
-2.159556619e-21
-8.182741114e-21
-1.957218969e-21
-7.301143668e-21
-1.770786169e-21
-6.505055189e-21
-1.599376079e-21
-5.787367166e-21
-1.44221327e-21
-5.14132602e-21
-1.298569253e-21
-4.560531388e-21
-1.167728261e-21
-4.03894075e-21
-1.048971674e-21
-3.570874442e-21
-9.415748384e-22
-3.15101765e-21
-8.448112797e-22
-2.774417769e-21
-7.579606872e-22
-2.436476702e-21
-6.803182231e-22
-2.132938371e-21
-6.112036353e-22
-1.859872067e-21
-5.499693249e-22
-1.613652458e-21
-4.960069819e-22
-1.390937039e-21
-4.48752702e-22
-1.188641792e-21
-4.076906752e-22
-1.003915664e-21
-3.723556357e-22
-8.341143916e-22
-3.423343028e-22
-6.767740521e-22
-3.172660516e-22
-5.295846385e-22
-2.968430408e-22
-3.903639066e-22
-2.80809997e-22
-2.570319157e-22
-2.689637933e-22
-1.275876518e-22
-2.611527035e-22
-2.572735267e-22
-1.425380837e-19
-8.035559572e-20
-1.12350015e-19
-9.059166955e-20
-6.679049659e-20
-1.188532367e-19
-1.560645837e-20
-1.096125061e-19
-5.805326905e-22
-2.991061414e-20
4.354483475e-25
-8.033894433e-23
7.544512751e-22
6.208473962e-25
-9.307875729e-18
-1.843597954e-20
-4.676160395e-20
1.178071546e-24
-4.497140337e-20
-4.168752046e-21
-4.199019462e-20
-7.232182938e-21
-3.849087634e-20
-8.915595535e-21
-3.494400657e-20
-9.483052658e-21
-3.159403266e-20
-9.3404222e-21
-2.85311877e-20
-8.826541573e-21
-2.576468401e-20
-8.163006717e-21
-2.327052272e-20
-7.472767259e-21
-2.101632783e-20
-6.813804258e-21
-1.897183929e-20
-6.207310512e-21
-1.711205514e-20
-5.656292397e-21
-1.541720461e-20
-5.156258617e-21
-1.38716704e-20
-4.70068192e-21
-1.246278992e-20
-4.283416718e-21
-1.117986894e-20
-3.899514174e-21
-1.001347618e-20
-3.545284424e-21
-8.954985356e-21
-3.218065182e-21
-7.996303905e-21
-2.915923543e-21
-7.129729705e-21
-2.637389333e-21
-6.347888743e-21
-2.381252263e-21
-5.643719579e-21
-2.146424278e-21
-5.010481446e-21
-1.931856164e-21
-4.44177119e-21
-1.736494479e-21
-3.931540295e-21
-1.5592659e-21
-3.474107295e-21
-1.399078652e-21
-3.064163547e-21
-1.254833369e-21
-2.696771917e-21
-1.125438153e-21
-2.36735889e-21
-1.009824472e-21
-2.071701032e-21
-9.06961919e-22
-1.805906917e-21
-8.158708106e-22
-1.56639561e-21
-7.35632273e-22
-1.349872697e-21
-6.653958107e-22
-1.153304697e-21
-6.043846121e-22
-9.738925395e-22
-5.518989403e-22
-8.090446148e-22
-5.073179966e-22
-6.563497831e-22
-4.701006351e-22
-5.135506041e-22
-4.397852711e-22
-3.785169622e-22
-4.159892695e-22
-2.492201913e-22
-3.984080211e-22
-1.237075961e-22
-3.868137872e-22
-3.81054182e-22
-6.133996758e-20
-2.319249897e-20
-8.36594922e-20
-2.691921545e-20
-1.183691721e-19
-8.331122023e-20
-7.780697463e-20
-2.335995971e-19
-2.206086116e-21
-2.095184884e-19
5.784948017e-22
-8.39301703e-21
5.769217016e-22
1.318816556e-24
-4.298861651e-18
8.399356735e-19
-5.091779587e-20
3.466722156e-24
-4.80334602e-20
-7.053086372e-21
-4.367491323e-20
-1.159072701e-20
-3.906035301e-20
-1.353015142e-20
-3.48030661e-20
-1.374033404e-20
-3.108125907e-20
-1.306222277e-20
-2.786826797e-20
-1.203952559e-20
-2.507473513e-20
-1.095653219e-20
-2.261166627e-20
-9.935828895e-21
-2.040984952e-20
-9.015614367e-21
-1.842079895e-20
-8.1963555e-21
-1.661198884e-20
-7.465098499e-21
-1.496159722e-20
-6.806648334e-21
-1.345438045e-20
-6.207899435e-21
-1.20788689e-20
-5.65893221e-21
-1.082562584e-20
-5.152764907e-21
-9.686247242e-21
-4.684674979e-21
-8.652836339e-21
-4.251492825e-21
-7.71776362e-21
-3.85101828e-21
-6.873587178e-21
-3.481593524e-21
-6.113055499e-21
-3.141817832e-21
-5.429146191e-21
-2.830373983e-21
-4.815114391e-21
-2.545935175e-21
-4.264537152e-21
-2.287125991e-21
-3.771347552e-21
-2.052517022e-21
-3.329856557e-21
-1.840638533e-21
-2.934762994e-21
-1.650003223e-21
-2.581153091e-21
-1.479131725e-21
-2.264491445e-21
-1.326577062e-21
-1.980605337e-21
-1.190946066e-21
-1.725664135e-21
-1.070916893e-21
-1.496155271e-21
-9.65252532e-22
-1.288858007e-21
-8.728105914e-22
-1.100815929e-21
-7.925498656e-22
-9.293088981e-22
-7.235342816e-22
-7.71824954e-22
-6.649348068e-22
-6.260325147e-22
-6.160298652e-22
-4.897530851e-22
-5.762047408e-22
-3.609345643e-22
-5.449503657e-22
-2.376251386e-22
-5.218618101e-22
-1.179475759e-22
-5.066367228e-22
-4.99073979e-22
-1.24330211e-20
-8.252669997e-21
-1.928862901e-20
-1.045680285e-20
-9.128500767e-20
-2.733983546e-20
-2.967413448e-19
-2.03273909e-19
-1.062863079e-19
-9.186414989e-19
8.117351517e-21
-5.999196257e-19
7.938520867e-21
1.783534092e-22
5.23127533e-19
1.238408017e-18
-5.794500588e-20
7.649007757e-25
-5.25706425e-20
-1.242744837e-20
-4.561864518e-20
-1.854272131e-20
-3.927472469e-20
-1.98740674e-20
-3.412767022e-20
-1.888738274e-20
-3.005998458e-20
-1.712990166e-20
-2.678588948e-20
-1.531361324e-20
-2.405422438e-20
-1.368818952e-20
-2.169145506e-20
-1.229859052e-20
-1.959052643e-20
-1.111653584e-20
-1.768946624e-20
-1.009740954e-20
-1.595347325e-20
-9.201086856e-21
-1.436279873e-20
-8.397320263e-21
-1.290537828e-20
-7.665319899e-21
-1.157267793e-20
-6.991635718e-21
-1.035752001e-20
-6.367929675e-21
-9.253054037e-21
-5.78915203e-21
-8.252353462e-21
-5.25220922e-21
-7.348331827e-21
-4.75506097e-21
-6.533804875e-21
-4.296147218e-21
-5.801604999e-21
-3.874050553e-21
-5.144700496e-21
-3.487317798e-21
-4.556298054e-21
-3.134383708e-21
-4.029920834e-21
-2.813556331e-21
-3.55946163e-21
-2.523036559e-21
-3.139213856e-21
-2.260953972e-21
-2.763884268e-21
-2.025407854e-21
-2.428591471e-21
-1.814506915e-21
-2.128853848e-21
-1.626404326e-21
-1.860569987e-21
-1.459326637e-21
-1.619994071e-21
-1.311596338e-21
-1.403708134e-21
-1.181648493e-21
-1.20859261e-21
-1.06804224e-21
-1.031796208e-21
-9.694680322e-22
-8.707058234e-22
-8.847515499e-22
-7.229169461e-22
-8.128551072e-22
-5.862048506e-22
-7.528772931e-22
-4.584966865e-22
-7.040514713e-22
-3.378444889e-22
-6.657436501e-22
-2.223990264e-22
-6.374501335e-22
-1.103843288e-22
-6.187952837e-22
-6.095296863e-22
-3.709692081e-21
-2.293348519e-21
-7.034864406e-21
-5.264231214e-21
-2.665867595e-20
-2.467180644e-20
-2.080574307e-19
-1.255067702e-19
-1.605021614e-18
-5.311669961e-19
-1.884201333e-20
-6.357265101e-18
4.905366067e-19
4.511912539e-20
1.795709807e-18
2.472920495e-19
-7.031329034e-20
6.504564442e-24
-5.869329158e-20
-2.404744566e-20
-4.69622399e-20
-3.027376985e-20
-3.829576374e-20
-2.854053884e-20
-3.23737551e-20
-2.480938533e-20
-2.824495163e-20
-2.125869801e-20
-2.516069528e-20
-1.839786173e-20
-2.266448657e-20
-1.618438996e-20
-2.050917857e-20
-1.445389026e-20
-1.857120005e-20
-1.305450656e-20
-1.679299249e-20
-1.187561023e-20
-1.51496027e-20
-1.084447124e-20
-1.363073104e-20
-9.916188507e-21
-1.223165231e-20
-9.06439775e-21
-1.094894654e-20
-8.274343698e-21
-9.778726813e-21
-7.538155251e-21
-8.716100955e-21
-6.851787909e-21
-7.755197356e-21
-6.213127534e-21
-6.889410946e-21
-5.620867281e-21
-6.111700914e-21
-5.073882795e-21
-5.414864398e-21
-4.570918674e-21
-4.791757936e-21
-4.110462293e-21
-4.235461677e-21
-3.690724739e-21
-3.739391711e-21
-3.309678064e-21
-3.297369544e-21
-2.965117673e-21
-2.903658289e-21
-2.654731476e-21
-2.552974104e-21
-2.376165636e-21
-2.240480026e-21
-2.127081915e-21
-1.961767784e-21
-1.905204713e-21
-1.712831875e-21
-1.708357739e-21
-1.490039034e-21
-1.53449117e-21
-1.290095344e-21
-1.38170065e-21
-1.110012541e-21
-1.248239594e-21
-9.470745472e-22
-1.132526201e-21
-7.988048825e-22
-1.033146494e-21
-6.629353062e-22
-9.488544885e-22
-5.373758639e-22
-8.78570437e-22
-4.201863485e-22
-8.213779106e-22
-3.09549091e-22
-7.76520341e-22
-2.037429233e-22
-7.433974999e-22
-1.011181081e-22
-7.215622959e-22
-7.107181783e-22
-9.879846425e-22
-2.480736377e-22
-4.641920443e-21
-1.963364998e-21
-2.762549412e-20
-2.059371458e-20
-7.159091613e-20
-1.309515272e-19
-4.68940096e-19
-2.996944796e-19
-1.371839249e-17
-2.903096805e-18
3.499791023e-18
-8.832977345e-17
1.9962872e-18
3.468109617e-18
-9.422463358e-20
-7.968651147e-22
-6.496783519e-20
-5.330424258e-20
-4.52587414e-20
-4.998286034e-20
-3.457554291e-20
-3.922373236e-20
-2.882564729e-20
-3.055927456e-20
-2.538391947e-20
-2.470041829e-20
-2.294640877e-20
-2.083536404e-20
-2.093323041e-20
-1.819755946e-20
-1.910924268e-20
-1.627786906e-20
-1.739194024e-20
-1.477180044e-20
-1.576162888e-20
-1.350591391e-20
-1.422118795e-20
-1.238490585e-20
-1.27788663e-20
-1.135850576e-20
-1.144155872e-20
-1.04017034e-20
-1.021273772e-20
-9.503165787e-21
-9.09234878e-21
-8.65854885e-21
-8.077433952e-21
-7.866711508e-21
-7.162931411e-21
-7.12764348e-21
-6.342420135e-21
-6.44139709e-21
-5.608729197e-21
-5.807597855e-21
-4.954399053e-21
-5.225278949e-21
-4.372010232e-21
-4.692887623e-21
-3.854403977e-21
-4.208374197e-21
-3.394819763e-21
-3.769312431e-21
-2.986971586e-21
-3.373023144e-21
-2.625080769e-21
-3.01668685e-21
-2.303879018e-21
-2.697439259e-21
-2.018591957e-21
-2.412448137e-21
-1.764910575e-21
-2.158972451e-21
-1.538955798e-21
-1.934405892e-21
-1.337239796e-21
-1.73630732e-21
-1.156626392e-21
-1.562420656e-21
-9.942920901e-22
-1.410686561e-21
-8.476886216e-22
-1.279247939e-21
-7.145074887e-22
-1.166450983e-21
-5.926466808e-22
-1.070843164e-21
-4.801795607e-22
-9.911693073e-22
-3.75325781e-22
-9.26366651e-22
-2.764240149e-22
-8.755595676e-22
-1.819062352e-22
-8.380544988e-22
-9.027325038e-23
-8.133354952e-22
-8.010606566e-22
-1.340275002e-22
-7.902973525e-25
-2.737657935e-21
-2.377661188e-22
-3.664657357e-20
-8.419534167e-21
-8.918754357e-20
-1.088967784e-19
-1.804202301e-20
-3.289581522e-19
3.497442538e-17
-3.786267741e-17
1.343648613e-16
-6.584626341e-16
2.085739786e-18
1.665571759e-15
-1.469534819e-19
-2.52523543e-19
-6.18882548e-20
-1.383694681e-19
-3.454795623e-20
-7.732315542e-20
-2.591486106e-20
-4.785682227e-20
-2.296279963e-20
-3.351132921e-20
-2.151505179e-20
-2.61481581e-20
-2.03060633e-20
-2.204434357e-20
-1.901201813e-20
-1.94915951e-20
-1.760230636e-20
-1.768757113e-20
-1.612557652e-20
-1.624852086e-20
-1.464036888e-20
-1.49911129e-20
-1.319466233e-20
-1.383060506e-20
-1.182200692e-20
-1.273115565e-20
-1.054299912e-20
-1.168070806e-20
-9.368114873e-21
-1.067804983e-20
-8.300511235e-21
-9.726155781e-21
-7.338366076e-21
-8.828863998e-21
-6.476683072e-21
-7.989338377e-21
-5.708616013e-21
-7.209481103e-21
-5.026402495e-21
-6.48983385e-21
-4.42199746e-21
-5.829712409e-21
-3.887484669e-21
-5.227435159e-21
-3.415328817e-21
-4.680571433e-21
-2.998516388e-21
-4.186173141e-21
-2.630620983e-21
-3.740973922e-21
-2.305819032e-21
-3.341551393e-21
-2.018874209e-21
-2.984453946e-21
-1.765103258e-21
-2.666296203e-21
-1.540331829e-21
-2.383828153e-21
-1.340845964e-21
-2.133983017e-21
-1.163342853e-21
-1.913908433e-21
-1.004883028e-21
-1.720984907e-21
-8.628452148e-22
-1.552834838e-21
-7.348844163e-22
-1.407324785e-21
-6.188934047e-22
-1.282563108e-21
-5.129675204e-22
-1.176894654e-21
-4.153725336e-22
-1.088893768e-21
-3.245152347e-22
-1.017356623e-21
-2.389163692e-22
-9.612935962e-22
-1.571855232e-22
-9.199222607e-22
-7.799755967e-23
-8.926613679e-22
-8.791261308e-22
-4.599968349e-24
4.075852079e-27
-3.823336498e-22
2.141465963e-23
-1.76053371e-20
-3.964518102e-22
-6.220463464e-20
-8.840087751e-20
4.533429446e-17
-4.570591785e-17
6.575424263e-15
-6.568090043e-15
7.237002849e-13
-7.178045342e-13
-6.451004132e-19
-1.19009474e-11
-3.339040457e-20
-5.224417736e-19
-7.396404586e-22
-1.710202306e-19
-5.000102937e-21
-7.306268925e-20
-1.152877528e-20
-4.132814435e-20
-1.558101022e-20
-2.945908706e-20
-1.740268403e-20
-2.432647573e-20
-1.774929503e-20
-2.169772295e-20
-1.720607057e-20
-2.003480926e-20
-1.616233656e-20
-1.873129458e-20
-1.486774309e-20
-1.754310394e-20
-1.34796807e-20
-1.637916559e-20
-1.209515189e-20
-1.521512535e-20
-1.077155276e-20
-1.405474799e-20
-9.540355409e-21
-1.291190092e-20
-8.41623977e-21
-1.180216382e-20
-7.403235101e-21
-1.073916221e-20
-6.498849847e-21
-9.73325496e-21
-5.696828428e-21
-8.791369985e-21
-4.988965288e-21
-7.917359415e-21
-4.366272618e-21
-7.112547142e-21
-3.819708045e-21
-6.376303478e-21
-3.340606201e-21
-5.706569753e-21
-2.920914202e-21
-5.100302756e-21
-2.553300072e-21
-4.553833433e-21
-2.231181215e-21
-4.063145977e-21
-1.94870468e-21
-3.624088289e-21
-1.700700239e-21
-3.232525972e-21
-1.482619897e-21
-2.884451335e-21
-1.290472455e-21
-2.5760575e-21
-1.120758304e-21
-2.303786019e-21
-9.704074596e-22
-2.064354836e-21
-8.367223113e-22
-1.854772006e-21
-7.173257211e-22
-1.672339387e-21
-6.101144797e-22
-1.514649542e-21
-5.132178361e-22
-1.379578312e-21
-4.249606265e-22
-1.265274898e-21
-3.438304485e-22
-1.170150832e-21
-2.684483029e-22
-1.092868838e-21
-1.975421318e-22
-1.032332319e-21
-1.29922709e-22
-9.876759822e-22
-6.446136481e-23
-9.582580025e-22
-9.43653946e-22
1.245161532e-27
4.638307826e-31
-4.620038177e-24
4.119696495e-24
-3.561834113e-22
-4.826341893e-24
-7.594440096e-20
-1.286477796e-20
-3.613515553e-17
-9.660896652e-18
-4.794504487e-15
-1.812207196e-15
-4.311344901e-13
-2.918184697e-13
3.163038129e-19
-6.287370566e-11
3.185230319e-19
2.772375106e-19
9.815503379e-20
4.934777035e-20
2.696862622e-20
-1.876277769e-21
4.065334997e-22
-1.476604569e-20
-1.042706437e-20
-1.86254815e-20
-1.47661859e-20
-1.998734504e-20
-1.60833285e-20
-2.038057002e-20
-1.59013266e-20
-2.021680004e-20
-1.497368616e-20
-1.96589235e-20
-1.370368058e-20
-1.881309808e-20
-1.231565788e-20
-1.77671774e-20
-1.093484299e-20
-1.659593044e-20
-9.628783031e-21
-1.536079976e-20
-8.430686065e-21
-1.410999189e-20
-7.353289702e-21
-1.287955693e-20
-6.397362326e-21
-1.169508964e-20
-5.556984021e-21
-1.057363718e-20
-4.822824408e-21
-9.525537899e-21
-4.184149826e-21
-8.556047193e-21
-3.630018643e-21
-7.666696885e-21
-3.149959102e-21
-6.856387375e-21
-2.734320868e-21
-6.122238518e-21
-2.374424819e-21
-5.46023584e-21
-2.062591879e-21
-4.865710178e-21
-1.792102881e-21
-4.33368575e-21
-1.557122352e-21
-3.859126698e-21
-1.352606596e-21
-3.437106773e-21
-1.174208299e-21
-3.062921831e-21
-1.018184591e-21
-2.732160473e-21
-8.81312188e-22
-2.440744591e-21
-7.608111633e-22
-2.184948695e-21
-6.542776775e-22
-1.961404681e-21
-5.596252759e-22
-1.767096953e-21
-4.750340132e-22
-1.599351497e-21
-3.989064948e-22
-1.455821541e-21
-3.298298871e-22
-1.334471667e-21
-2.665429828e-22
-1.233561732e-21
-2.079074646e-22
-1.151631524e-21
-1.52882592e-22
-1.08748683e-21
-1.005026107e-22
-1.040187344e-21
-4.98562529e-23
-1.009036731e-21
-9.935750414e-22
4.632136366e-31
1.771751015e-34
1.844272005e-24
2.710834704e-26
-1.894872134e-25
9.4752113e-24
-1.212489055e-20
-7.212041753e-22
-5.744953463e-18
-3.926149898e-18
-6.065003733e-16
-1.210873001e-15
-3.83323164e-14
-2.539954927e-13
1.31736997e-18
-3.816065545e-11
8.980792354e-20
2.323686251e-19
4.624205617e-20
9.291363989e-20
1.393184564e-20
3.043393692e-20
-3.485605905e-21
2.651412171e-21
-1.179655526e-20
-1.031452395e-20
-1.516145295e-20
-1.662243755e-20
-1.592036295e-20
-1.962164891e-20
-1.534397505e-20
-2.07931759e-20
-1.412829664e-20
-2.087458937e-20
-1.265813175e-20
-2.028325037e-20
-1.114471692e-20
-1.928058006e-20
-9.699952571e-21
-1.804068358e-20
-8.378154906e-21
-1.668258773e-20
-7.200378753e-21
-1.52877604e-20
-6.168907427e-21
-1.391102326e-20
-5.275961417e-21
-1.258803385e-20
-4.50891093e-21
-1.134068961e-20
-3.85334131e-21
-1.018111376e-20
-3.294793997e-21
-9.114605541e-21
-2.81969473e-21
-8.141812461e-21
-2.415790184e-21
-7.260313935e-21
-2.072294867e-21
-6.465761941e-21
-1.779874307e-21
-5.752690927e-21
-1.530542305e-21
-5.1150834e-21
-1.317519234e-21
-4.546756941e-21
-1.135078943e-21
-4.041622147e-21
-9.783996329e-22
-3.593848344e-21
-8.434265859e-22
-3.197964233e-21
-7.26750115e-22
-2.848913311e-21
-6.254994824e-22
-2.542078444e-21
-5.372521005e-22
-2.273285918e-21
-4.599566051e-22
-2.038796332e-21
-3.918681093e-22
-1.835287543e-21
-3.314939002e-22
-1.659833296e-21
-2.775479378e-22
-1.509880083e-21
-2.289126651e-22
-1.383223948e-21
-1.846068158e-22
-1.277988403e-21
-1.437580782e-22
-1.19260424e-21
-1.055796311e-22
-1.125791716e-21
-6.934970286e-23
-1.076545447e-21
-3.439342027e-23
-1.044122179e-21
-1.028031561e-21
1.771254667e-34
4.963473885e-38
1.279507057e-26
1.064981288e-29
7.366258528e-24
5.093726301e-25
-7.137881696e-22
-7.672810714e-28
-2.768459675e-18
-1.15539989e-18
-2.356883993e-16
-9.779104141e-16
3.907272623e-14
-2.932949244e-13
3.528737923e-18
-3.686511605e-11
-4.945589521e-20
8.072351802e-20
-1.645285854e-20
5.991060523e-20
-1.395119354e-20
2.793227635e-20
-1.649263355e-20
5.192858907e-21
-1.812129278e-20
-8.685855958e-21
-1.816808715e-20
-1.657563268e-20
-1.709558028e-20
-2.069414384e-20
-1.542747443e-20
-2.246126875e-20
-1.353826347e-20
-2.276378667e-20
-1.165633095e-20
-2.216516904e-20
-9.905414854e-21
-2.103148262e-20
-8.342263567e-21
-1.960382215e-20
-6.983601358e-21
-1.80412386e-20
-5.823819666e-21
-1.64475327e-20
-4.846027356e-21
-1.488880868e-20
-4.028677708e-21
-1.340537969e-20
-3.349361517e-21
-1.202000564e-20
-2.786836312e-21
-1.074364297e-20
-2.321988817e-21
-9.579461738e-21
-1.938174483e-21
-8.525640667e-21
-1.621210894e-21
-7.577297006e-21
-1.359193805e-21
-6.72780451e-21
-1.142235912e-21
-5.969680636e-21
-9.62185445e-22
-5.295172292e-21
-8.123553336e-22
-4.696632299e-21
-6.872778298e-22
-4.166751861e-21
-5.824902836e-22
-3.698695134e-21
-4.943526201e-22
-3.286168172e-21
-4.198944182e-22
-2.92344474e-21
-3.56688295e-22
-2.605364593e-21
-3.027459368e-22
-2.327314873e-21
-2.564332138e-22
-2.085201921e-21
-2.164011206e-22
-1.8754184e-21
-1.815296904e-22
-1.69480895e-21
-1.508824394e-22
-1.540636517e-21
-1.236692907e-22
-1.410550682e-21
-9.921626708e-23
-1.302558805e-21
-7.694053827e-23
-1.215000488e-21
-5.632965373e-23
-1.14652557e-21
-3.692398817e-23
-1.096075813e-21
-1.830158445e-23
-1.062870273e-21
-1.046394374e-21
4.962359675e-38
1.114210763e-41
8.343988211e-30
4.176675093e-33
4.269458368e-25
3.182030812e-26
4.804090809e-25
3.750371497e-27
-1.085716106e-18
-6.96832458e-20
-4.505653157e-16
-5.285017416e-16
-2.229578736e-14
-2.714400366e-13
2.915744931e-18
-3.593619753e-11
-7.03566974e-20
5.777373845e-20
-4.832959198e-20
3.788350197e-20
-3.669210998e-20
1.629479906e-20
-3.038567189e-20
-1.113572015e-21
-2.602216642e-20
-1.304935209e-20
-2.229370465e-20
-2.030408321e-20
-1.886714205e-20
-2.412069362e-20
-1.573281068e-20
-2.559558608e-20
-1.294147637e-20
-2.555510614e-20
-1.052384994e-20
-2.45827803e-20
-8.478549508e-21
-2.307676804e-20
-6.780198876e-21
-2.130215846e-20
-5.39022586e-21
-1.943119853e-20
-4.265297122e-21
-1.757245016e-20
-3.362712103e-21
-1.57913848e-20
-2.64335841e-21
-1.412472744e-20
-2.073014698e-21
-1.259034692e-20
-1.62264599e-21
-1.119401331e-20
-1.268143365e-21
-9.933970569e-21
-9.897977364e-22
-8.803997564e-21
-7.716810393e-22
-7.795430475e-21
-6.010312237e-22
-6.898476997e-21
-4.676893931e-22
-6.103051377e-21
-3.63608968e-22
-5.399288149e-21
-2.82440775e-22
-4.777842659e-21
-2.1918969e-22
-4.230051997e-21
-1.699347425e-22
-3.748006093e-21
-1.316034366e-22
-3.324562449e-21
-1.017912521e-22
-2.953326785e-21
-7.861814673e-23
-2.628614298e-21
-6.061498549e-23
-2.34540115e-21
-4.66339484e-23
-2.099272295e-21
-3.577801407e-23
-1.886369525e-21
-2.734553083e-23
-1.703342046e-21
-2.078666175e-23
-1.547300926e-21
-1.566913037e-23
-1.415778126e-21
-1.165121315e-23
-1.306690407e-21
-8.46034095e-24
-1.218308168e-21
-5.876000283e-24
-1.149229157e-21
-3.715880628e-24
-1.098356903e-21
-1.82440945e-24
-1.064883704e-21
-1.048278024e-21
1.11400436e-41
2.064029987e-45
4.173932793e-33
2.243021131e-36
7.459671657e-26
6.884061805e-27
1.329905741e-25
3.949942908e-27
-7.22090076e-20
2.525924194e-21
-2.98912169e-16
-2.296573822e-16
-5.441060465e-14
-2.173178411e-13
-1.366094763e-18
-3.495914994e-11
-9.086559454e-20
3.171143041e-20
-6.989229676e-20
1.691020651e-20
-5.409389296e-20
4.964002511e-22
-4.232535786e-20
-1.28820995e-20
-3.32830986e-20
-2.209160139e-20
-2.611579575e-20
-2.747137406e-20
-2.034616773e-20
-2.98903079e-20
-1.569524997e-20
-3.024648872e-20
-1.197114247e-20
-2.927919756e-20
-9.019163804e-21
-2.753474239e-20
-6.704801544e-21
-2.539111373e-20
-4.909781938e-21
-2.309716204e-20
-3.531804933e-21
-2.080916061e-20
-2.48441543e-21
-1.86198264e-20
-1.696144111e-21
-1.65796451e-20
-1.109006783e-21
-1.471185655e-20
-6.766723551e-22
-1.302267652e-20
-3.625722041e-22
-1.150811257e-20
-1.381271111e-22
-1.015841922e-20
1.88182374e-23
-8.96095142e-21
1.253227876e-22
-7.901948925e-21
1.944436425e-22
-6.967617544e-21
2.361204794e-22
-6.144754044e-21
2.578797598e-22
-5.421079683e-21
2.653893657e-22
-4.785391165e-21
2.628918596e-22
-4.227600188e-21
2.535408102e-22
-3.73870762e-21
2.396605955e-22
-3.310741698e-21
2.229463024e-22
-2.936678774e-21
2.04617031e-22
-2.610357986e-21
1.855331196e-22
-2.326396656e-21
1.662855391e-22
-2.080110301e-21
1.472638787e-22
-1.867439259e-21
1.287079024e-22
-1.684882844e-21
1.107465306e-22
-1.529441219e-21
9.342721768e-23
-1.398564823e-21
7.673802172e-23
-1.290110968e-21
6.062413951e-23
-1.202307148e-21
4.500028278e-23
-1.13372059e-21
2.975997054e-23
-1.083233599e-21
1.478258818e-23
-1.050024318e-21
-1.033552579e-21
2.063921216e-45
1.087707704e-49
2.242706342e-36
3.1479064e-40
1.962281148e-26
1.420944708e-27
7.896489648e-26
3.322821079e-27
2.519507312e-21
6.498465749e-24
-1.981009046e-16
-3.155395744e-17
-5.879279247e-14
-1.587265803e-13
-1.52682773e-17
-3.536826555e-11
-1.065841223e-19
1.321784037e-20
-8.628788144e-20
-3.386031951e-21
-6.746665856e-20
-1.832481732e-20
-5.153652432e-20
-2.881222564e-20
-3.866720595e-20
-3.496090916e-20
-2.853921994e-20
-3.759934726e-20
-2.070604772e-20
-3.772346539e-20
-1.473069316e-20
-3.622182703e-20
-1.022857931e-20
-3.378129403e-20
-6.876780705e-21
-3.088652297e-20
-4.411631981e-21
-2.785624427e-20
-2.622244504e-21
-2.488653171e-20
-1.342723385e-21
-2.208866486e-20
-4.443504703e-22
-1.951818395e-20
1.716132438e-22
-1.719559555e-20
5.801931125e-22
-1.512042583e-20
8.379402272e-22
-1.328041629e-20
9.871842587e-22
-1.165735305e-20
1.059409386e-21
-1.023064513e-20
1.077889593e-21
-8.979437229e-21
1.059720076e-21
-7.883790285e-21
1.017368431e-21
-6.925282455e-21
9.598507572e-22
-6.087258958e-21
8.936186266e-22
-5.354876461e-21
8.232252516e-22
-4.715033248e-21
7.518242079e-22
-4.15624131e-21
6.815417793e-22
-3.668474152e-21
6.137542595e-22
-3.243009946e-21
5.492939473e-22
-2.872280976e-21
4.886017324e-22
-2.549734893e-21
4.318397287e-22
-2.269710172e-21
3.789740453e-22
-2.02732625e-21
3.298352588e-22
-1.818387863e-21
2.841622456e-22
-1.639302558e-21
2.416336151e-22
-1.48701017e-21
2.018899149e-22
-1.358923018e-21
1.645489891e-22
-1.252875659e-21
1.292162734e-22
-1.167083135e-21
9.549137333e-23
-1.100106806e-21
6.297194576e-23
-1.050826999e-21
3.125566417e-23
-1.018421853e-21
-1.002351865e-21
1.156532586e-47
8.121331011e-50
6.79998455e-39
2.631273566e-40
3.004508007e-27
3.593505351e-29
7.247290327e-27
1.531791031e-27
-3.460464373e-24
-2.196220879e-24
-3.392403886e-17
2.370129143e-18
-6.318544987e-14
-9.558322425e-14
-2.125036281e-18
-3.876902549e-11
-1.244857111e-19
-4.167267277e-21
-1.012197579e-19
-2.66519825e-20
-7.7954635e-20
-4.158993461e-20
-5.76893513e-20
-4.907750074e-20
-4.131063003e-20
-5.133961919e-20
-2.86677889e-20
-5.024217474e-20
-1.920785051e-20
-4.718338806e-20
-1.229258826e-20
-4.313707184e-20
-7.335404913e-21
-3.873845865e-20
-3.847484103e-21
-3.437442422e-20
-1.442476761e-21
-3.026123173e-20
1.75344152e-22
-2.650433296e-20
1.227654701e-21
-2.314095652e-20
1.878240119e-21
-2.016875184e-20
2.246844093e-21
-1.756418392e-20
2.420293574e-21
-1.529386224e-20
2.461106272e-21
-1.332121902e-20
2.413996304e-21
-1.161023677e-20
2.310716836e-21
-1.012736355e-20
2.173628499e-21
-8.842351462e-21
2.01831104e-21
-7.728480545e-21
1.855466013e-21
-6.762450709e-21
1.692298641e-21
-5.924110784e-21
1.53351917e-21
-5.196122403e-21
1.382067221e-21
-4.563613161e-21
1.239634886e-21
-4.013847448e-21
1.107043743e-21
-3.535928187e-21
9.845159205e-22
-3.120534026e-21
8.718682747e-22
-2.759691902e-21
7.686508015e-22
-2.446582529e-21
6.742445792e-22
-2.175375391e-21
5.879303527e-22
-1.941089519e-21
5.089358282e-22
-1.73947654e-21
4.364675417e-22
-1.566922765e-21
3.697315685e-22
-1.420367504e-21
3.079461771e-22
-1.297235214e-21
2.503486888e-22
-1.195379453e-21
1.961981873e-22
-1.113036982e-21
1.447752793e-22
-1.048790647e-21
9.537978285e-23
-1.001539957e-21
4.732698706e-23
-9.704784995e-22
-9.550775462e-22
1.279325597e-49
1.602282127e-53
4.121882227e-39
1.57609201e-40
5.542328095e-29
8.299375004e-32
2.867753493e-27
3.08163261e-28
-2.923524799e-24
-1.093155559e-24
2.36403155e-18
6.094672027e-21
-6.395275821e-14
-3.162810354e-14
7.414385575e-18
-4.472962057e-11
-1.486852858e-19
-2.7923982e-20
-1.161669161e-19
-5.917034941e-20
-8.545332212e-20
-7.230352267e-20
-5.996082461e-20
-7.456998916e-20
-4.022020275e-20
-7.108022912e-20
-2.561389019e-20
-6.484847281e-20
-1.516472222e-20
-5.763253928e-20
-7.895916053e-21
-5.040585936e-20
-2.97245523e-21
-4.366189935e-20
2.651794726e-22
-3.76120378e-20
2.314235102e-21
-3.231026573e-20
3.538731989e-21
-2.772880826e-20
4.199976843e-21
-2.380218039e-20
4.482974812e-21
-2.045173001e-20
4.517348438e-21
-1.759853953e-20
4.393116695e-21
-1.516961485e-20
4.172256081e-21
-1.310034571e-20
3.897020569e-21
-1.133499208e-20
3.595862323e-21
-9.826200166e-21
3.28761573e-21
-8.534104291e-21
2.984441459e-21
-7.425310717e-21
2.693892472e-21
-6.471911603e-21
2.42036124e-21
-5.650595232e-21
2.166091962e-21
-4.941874909e-21
1.931887306e-21
-4.329436629e-21
1.717600652e-21
-3.799595432e-21
1.522477681e-21
-3.340846465e-21
1.345392064e-21
-2.943496297e-21
1.185006732e-21
-2.599361044e-21
1.039882786e-21
-2.301519521e-21
9.085516424e-22
-2.044111451e-21
7.895613562e-22
-1.822172429e-21
6.815048695e-22
-1.6314989e-21
5.830356485e-22
-1.468537634e-21
4.928745639e-22
-1.330295282e-21
4.098107318e-22
-1.21426449e-21
3.326982277e-22
-1.118363725e-21
2.604500112e-22
-1.040888587e-21
1.920299916e-22
-9.804728349e-22
1.26443877e-22
-9.360577471e-22
6.272924752e-23
-9.068687631e-22
-8.923986086e-22
4.867121934e-53
2.005531014e-56
1.078677635e-39
1.402689847e-41
8.738004641e-32
3.069630209e-35
6.102581061e-28
2.652950304e-29
-1.139538308e-24
-2.524587879e-25
6.093142607e-21
3.898810201e-25
-3.162809716e-14
2.489929826e-25
8.619141683e-18
-5.438596658e-11
-1.821226289e-19
-9.362828919e-20
-1.293463628e-19
-1.119466126e-19
-8.774538589e-20
-1.139044933e-19
-5.648621442e-20
-1.05829151e-19
-3.399728912e-20
-9.356914182e-20
-1.840285364e-20
-8.044289293e-20
-7.940524354e-21
-6.809485076e-20
-1.153019377e-21
-5.719334445e-20
3.077133938e-21
-4.789203111e-20
5.567089707e-21
-4.010197082e-20
6.896019902e-21
-3.36391725e-20
7.46575315e-21
-2.829851794e-20
7.550821778e-21
-2.388722588e-20
7.336530147e-21
-2.023741626e-20
6.946595982e-21
-1.720858486e-20
6.462664305e-21
-1.468566487e-20
5.937846227e-21
-1.257551212e-20
5.406011552e-21
-1.080314525e-20
4.88812492e-21
-9.308305293e-21
4.396548614e-21
-8.04252416e-21
3.937956924e-21
-6.96672009e-21
3.515306089e-21
-6.049267139e-21
3.129162968e-21
-5.26446416e-21
2.778598521e-21
-4.591328498e-21
2.4617859e-21
-4.012648277e-21
2.176397977e-21
-3.514238187e-21