/*--------------------------------*- C++ -*----------------------------------*\
  =========                 |
  \\      /  F ield         | OpenFOAM: The Open Source CFD Toolbox
   \\    /   O peration     | Website:  https://openfoam.org
    \\  /    A nd           | Version:  6
     \\/     M anipulation  |
\*---------------------------------------------------------------------------*/
FoamFile
{
    version     2.0;
    format      ascii;
    class       volVectorField;
    location    "0.17";
    object      gradT;
}
// * * * * * * * * * * * * * * * * * * * * * * * * * * * * * * * * * * * * * //

dimensions      [0 -1 0 1 0 0 0];

internalField   nonuniform List<vector> 
2500
(
(0 -1269.770816 30773.21162)
(0 -2733.847556 27893.49361)
(0 -3073.312488 23814.53319)
(0 -3194.461517 18799.41712)
(0 -2892.71311 13311.95932)
(0 -2395.522239 8303.200601)
(0 -2088.153912 4094.019655)
(0 -1024.819957 213.3162052)
(0 -33.32793477 117.3431971)
(0 -14.91222468 83.09515498)
(0 -10.75650541 57.84621282)
(0 -7.598468269 39.67352919)
(0 -5.288498953 26.82205225)
(0 -3.636262189 17.84328636)
(0 -2.466046636 11.65030189)
(0 -1.644643631 7.446493568)
(0 -1.075179507 4.64833111)
(0 -0.6869709936 2.828154585)
(0 -0.4278859782 1.674428127)
(0 -0.2592635531 0.9634862625)
(0 -0.1525739849 0.5383263628)
(0 -0.08710450852 0.2918768486)
(0 -0.04820417718 0.1535136092)
(0 -0.02584721095 0.0783093902)
(0 -0.01342578289 0.03874333684)
(0 -0.006755560634 0.01859296174)
(0 -0.003293404048 0.00865693309)
(0 -0.001555992701 0.003911769863)
(0 -0.0007126973805 0.001716056564)
(0 -0.0003166069396 0.000731162887)
(0 -0.000136477666 0.0003026979528)
(0 -5.71152434e-05 0.0001218171256)
(0 -2.32150555e-05 4.767811994e-05)
(0 -9.171202179e-06 1.81572806e-05)
(0 -3.523374716e-06 6.730853201e-06)
(0 -1.31539511e-06 2.429761067e-06)
(0 -4.747619669e-07 8.540915551e-07)
(0 -1.684183843e-07 2.987202861e-07)
(0 -6.404510229e-08 1.014557241e-07)
(0 -2.296400435e-08 2.879912021e-08)
(0 -7.623296525e-09 3.105787473e-09)
(0 -5.317484613e-09 -5.223369841e-09)
(0 -2.635213614e-09 -1.30819533e-08)
(0 1.364664193e-09 -1.251726466e-08)
(0 3.952820421e-09 -1.129377263e-08)
(0 6.070402789e-09 -4.705738596e-11)
(0 3.294017017e-09 5.646886315e-09)
(0 1.882295438e-10 6.917435736e-09)
(0 -1.788180666e-09 6.964493122e-09)
(0 -2.776385772e-09 2.964615315e-09)
(0 -1609.947189 19483.52971)
(0 -4224.830871 19399.40101)
(0 -6020.764006 18275.51172)
(0 -7308.112351 16027.55304)
(0 -7603.503411 12453.98222)
(0 -6822.417429 8128.061056)
(0 -6001.730484 4096.672416)
(0 -2951.856501 224.3187839)
(0 -96.89311543 128.1181642)
(0 -44.58475963 93.35053088)
(0 -32.66512038 67.11195271)
(0 -23.4256923 47.52694973)
(0 -16.54174388 33.12445229)
(0 -11.53548817 22.66259338)
(0 -7.930746153 15.17290593)
(0 -5.357327149 9.91224737)
(0 -3.543159477 6.303548912)
(0 -2.28693199 3.895040454)
(0 -1.436782344 2.335479835)
(0 -0.8768382112 1.357648432)
(0 -0.519035429 0.7647272533)
(0 -0.2977082451 0.4172670194)
(0 -0.1653632813 0.2205373164)
(0 -0.08892306149 0.1129153828)
(0 -0.04629064552 0.0560173472)
(0 -0.02333084312 0.02693552344)
(0 -0.01138778773 0.01255816483)
(0 -0.005384883872 0.005679507671)
(0 -0.002467909595 0.002492758389)
(0 -0.001096751671 0.001062300253)
(0 -0.0004728681424 0.0004397739064)
(0 -0.0001979045894 0.0001769519119)
(0 -8.044474247e-05 6.923656722e-05)
(0 -3.177611161e-05 2.635698305e-05)
(0 -1.220409776e-05 9.770666219e-06)
(0 -4.561413593e-06 3.526809905e-06)
(0 -1.656278814e-06 1.239538604e-06)
(0 -5.842174467e-07 4.210694896e-07)
(0 -2.058290062e-07 1.418309613e-07)
(0 -7.538593231e-08 4.846910754e-08)
(0 -2.644625091e-08 1.261137944e-08)
(0 -1.077614138e-08 -5.646886315e-10)
(0 -4.752795982e-09 -3.529303947e-09)
(0 4.235164736e-10 -4.235164736e-09)
(0 8.517386859e-09 -3.482246561e-09)
(0 1.096437093e-08 -2.117582368e-09)
(0 3.576361333e-09 -1.505836351e-09)
(0 1.176434649e-09 1.505836351e-09)
(0 -2.21169714e-09 2.399926684e-09)
(0 -7.152722666e-09 4.046935192e-09)
(0 -1353.899521 12385.13019)
(0 -3941.865545 12911.23412)
(0 -6445.160455 13271.70679)
(0 -9015.991022 13025.31769)
(0 -10792.20509 11527.84116)
(0 -10752.83204 8236.649003)
(0 -9991.896184 4321.660619)
(0 -4993.374209 258.3779494)
(0 -164.2961878 156.4095098)
(0 -75.91843615 118.9965277)
(0 -56.58008656 89.69342365)
(0 -41.58596868 66.47163598)
(0 -30.1528553 48.26146053)
(0 -21.58780856 34.20766176)
(0 -15.21639265 23.59385705)
(0 -10.51400065 15.79504289)
(0 -7.092386423 10.24488404)
(0 -4.65504007 6.430625511)
(0 -2.965278 3.903651141)
(0 -1.830016135 2.291041136)
(0 -1.092955398 1.299954145)
(0 -0.6312944454 0.7132287108)
(0 -0.3525558138 0.3785003674)
(0 -0.1903671801 0.1943625137)
(0 -0.09940564224 0.09662014074)
(0 -0.0502147431 0.04652122427)
(0 -0.02454941991 0.02170675669)
(0 -0.01162139914 0.009820618434)
(0 -0.005329904704 0.004310493823)
(0 -0.002369591469 0.001836563)
(0 -0.00102182596 0.0007600134409)
(0 -0.0004276526767 0.0003056449216)
(0 -0.0001738098902 0.0001195190311)
(0 -6.863710318e-05 4.546943447e-05)
(0 -2.635359492e-05 1.683859147e-05)
(0 -9.846475668e-06 6.074120322e-06)
(0 -3.580502383e-06 2.134523027e-06)
(0 -1.266078969e-06 7.274130721e-07)
(0 -4.366925417e-07 2.412632178e-07)
(0 -1.521835862e-07 8.093870385e-08)
(0 -5.661003531e-08 2.484629979e-08)
(0 -2.155228277e-08 3.670476105e-09)
(0 -6.305689718e-09 -2.352869298e-10)
(0 1.458778965e-09 -1.035262491e-09)
(0 6.070402789e-09 5.646886315e-10)
(0 7.999755613e-09 -5.693943701e-09)
(0 6.917435736e-09 -3.294017017e-09)
(0 4.046935192e-09 -1.317606807e-09)
(0 8.470329473e-10 -8.940903332e-10)
(0 -9.223247648e-09 -1.882295438e-10)
(0 -1083.843257 8533.105613)
(0 -3338.254268 9015.824673)
(0 -5906.680429 9661.742289)
(0 -9051.977983 10137.05666)
(0 -12392.1721 9971.465844)
(0 -14028.59797 8004.98419)
(0 -13980.00154 4300.552968)
(0 -7117.107611 311.3454215)
(0 -236.2745371 212.0351572)
(0 -111.3008458 170.0410661)
(0 -85.19001214 134.3836874)
(0 -64.85765542 103.7893625)
(0 -48.8057181 77.97923053)
(0 -36.20309165 56.80655055)
(0 -26.34336502 40.02914886)
(0 -18.70630016 27.2426424)
(0 -12.90757686 17.89192588)
(0 -8.628164887 11.33602962)
(0 -5.576366718 6.929044445)
(0 -3.480535208 4.087023568)
(0 -2.096847855 2.32723625)
(0 -1.219162023 1.279949657)
(0 -0.6842294784 0.6803142606)
(0 -0.3708032881 0.3496639888)
(0 -0.1941319349 0.1738943898)
(0 -0.09824422713 0.08373093949)
(0 -0.04808839357 0.03905936385)
(0 -0.02278114678 0.01766342637)
(0 -0.01045196508 0.007748261837)
(0 -0.004647232007 0.003298968207)
(0 -0.002003786174 0.001364137244)
(0 -0.0008383989993 0.0005481481956)
(0 -0.0003406202766 0.0002141691749)
(0 -0.0001344565513 8.140678367e-05)
(0 -5.159945897e-05 3.011790345e-05)
(0 -1.926548204e-05 1.085293904e-05)
(0 -7.002891949e-06 3.811365918e-06)
(0 -2.477571371e-06 1.303160189e-06)
(0 -8.522563171e-07 4.329750082e-07)
(0 -2.918028503e-07 1.415015596e-07)
(0 -1.03761536e-07 4.644563994e-08)
(0 -3.581067071e-08 1.472896181e-08)
(0 -9.411477192e-09 3.670476105e-09)
(0 1.176434649e-09 9.882051051e-10)
(0 3.905763035e-09 6.117460175e-10)
(0 7.10566528e-09 -1.458778965e-09)
(0 7.952698227e-09 -2.070524982e-09)
(0 3.529303947e-09 -3.294017017e-09)
(0 -9.882051051e-10 -1.176434649e-09)
(0 -6.164517561e-09 -3.011672701e-09)
(0 -871.1804612 6582.220938)
(0 -2813.228869 6966.912599)
(0 -5323.928465 7577.4083)
(0 -8706.267467 8149.287724)
(0 -12924.27756 8351.349651)
(0 -16423.74492 7451.648439)
(0 -17685.53495 4173.387641)
(0 -9081.892019 408.5274895)
(0 -305.6005432 314.3972928)
(0 -153.569906 264.6979414)
(0 -122.8317902 217.2088596)
(0 -97.99042558 172.775288)
(0 -77.13566726 132.7444784)
(0 -59.53789023 98.30729854)
(0 -44.78030081 70.09857439)
(0 -32.65122363 48.10691098)
(0 -22.9989992 31.77663224)
(0 -15.6179215 20.21008768)
(0 -10.21428405 12.38293628)
(0 -6.43182433 7.313958014)
(0 -3.900029309 4.167302064)
(0 -2.278216435 2.29213897)
(0 -1.282841482 1.217929613)
(0 -0.6967870509 0.62561685)
(0 -0.3653386916 0.310888719)
(0 -0.1850497691 0.1495585884)
(0 -0.09061693303 0.06969809261)
(0 -0.0429325011 0.0314862024)
(0 -0.01969436287 0.01379715841)
(0 -0.008753716109 0.005868161814)
(0 -0.003772646019 0.002423955879)
(0 -0.001577620605 0.0009730105105)
(0 -0.0006405513963 0.0003797830802)
(0 -0.0002526883747 0.0001442182766)
(0 -9.690739249e-05 5.330886557e-05)
(0 -3.61530132e-05 1.919282544e-05)
(0 -1.313032829e-05 6.734664849e-06)
(0 -4.644469879e-06 2.303129641e-06)
(0 -1.598351171e-06 7.682118258e-07)
(0 -5.386658971e-07 2.519452444e-07)
(0 -1.833826331e-07 8.620913108e-08)
(0 -6.432744661e-08 2.842266112e-08)
(0 -2.004644642e-08 8.940903332e-09)
(0 -1.647008509e-09 2.588156228e-09)
(0 3.623418719e-09 5.176312455e-10)
(0 5.317484613e-09 4.705738596e-11)
(0 5.176312455e-09 -4.846910754e-09)
(0 4.941025526e-09 -5.317484613e-09)
(0 1.035262491e-09 -3.388131789e-09)
(0 -4.988082912e-09 -9.411477192e-10)
(0 -699.1515958 5692.065938)
(0 -2343.066906 5977.90051)
(0 -4724.305304 6584.543645)
(0 -8278.036632 7300.790284)
(0 -13089.81139 7719.610492)
(0 -18206.55998 7298.410656)
(0 -21023.12249 4716.597146)
(0 -10976.09796 607.4865484)
(0 -380.1040853 499.3169469)
(0 -208.4892789 434.769369)
(0 -177.1126655 365.6819605)
(0 -149.3220367 296.0456124)
(0 -123.2737076 230.2178309)
(0 -98.84899568 171.8450802)
(0 -76.54375258 123.132646)
(0 -57.02824231 84.73360063)
(0 -40.80440015 56.03973874)
(0 -28.02186084 35.64968423)
(0 -18.47249639 21.83299091)
(0 -11.69616942 12.8839163)
(0 -7.118666899 7.33213735)
(0 -4.168534474 4.027359298)
(0 -2.350751598 2.13679762)
(0 -1.277844182 1.095955985)
(0 -0.6701901966 0.5437898936)
(0 -0.3394348535 0.2612089778)
(0 -0.1661607795 0.1215527114)
(0 -0.07868208107 0.05483428377)
(0 -0.03607000562 0.02399570351)
(0 -0.01602043449 0.01019256782)
(0 -0.006898937477 0.00420503568)
(0 -0.002882571751 0.001685978471)
(0 -0.001169412605 0.0006573292837)
(0 -0.000460930813 0.000249350406)
(0 -0.0001766248631 9.208085758e-05)
(0 -6.58396357e-05 3.312129405e-05)
(0 -2.38926348e-05 1.160976298e-05)
(0 -8.443977336e-06 3.967972899e-06)
(0 -2.903440714e-06 1.322547832e-06)
(0 -9.73805545e-07 4.327867787e-07)
(0 -3.273311767e-07 1.407956988e-07)
(0 -1.131259558e-07 4.65868121e-08)
(0 -3.515186731e-08 1.524659305e-08)
(0 -7.152722666e-09 3.482246561e-09)
(0 1.270549421e-09 -1.270549421e-09)
(0 1.647008509e-09 -2.117582368e-09)
(0 2.588156228e-09 -5.552771543e-09)
(0 5.035140298e-09 -5.223369841e-09)
(0 3.341074403e-09 -3.152844859e-09)
(0 -1.788180666e-09 -8.940903332e-10)
(0 -585.3458886 5491.043017)
(0 -1920.751161 5647.584596)
(0 -4001.038692 6250.442934)
(0 -7571.20062 7203.463532)
(0 -12926.65719 7982.383261)
(0 -19426.75826 7909.059554)
(0 -24376.45906 5928.738829)
(0 -13299.17222 958.0162191)
(0 -478.3177226 824.9417708)
(0 -287.2048924 733.0114358)
(0 -261.5555467 625.040834)
(0 -233.4545551 510.3917577)
(0 -201.3361995 398.821417)
(0 -166.6230751 298.3347481)
(0 -131.8917804 213.8358006)
(0 -99.7441309 147.0263905)
(0 -72.0829156 97.08538571)
(0 -49.82466933 61.63795971)
(0 -32.98005198 37.66556017)
(0 -20.93267789 22.17577044)
(0 -12.75658631 12.59096267)
(0 -7.473556165 6.900290681)
(0 -4.214244795 3.653123061)
(0 -2.289794777 1.869782736)
(0 -1.200085698 0.9259199648)
(0 -0.6072869512 0.4439388571)
(0 -0.2969916272 0.206224618)
(0 -0.1404895088 0.09287854945)
(0 -0.06433607881 0.04058154996)
(0 -0.02854438404 0.01721284447)
(0 -0.01227923532 0.007091727447)
(0 -0.005125327142 0.002839777011)
(0 -0.002077179414 0.001105857323)
(0 -0.0008179367067 0.0004190267755)
(0 -0.0003131365045 0.0001545772542)
(0 -0.0001166242019 5.554555018e-05)
(0 -4.228360238e-05 1.945102931e-05)
(0 -1.493163797e-05 6.641867684e-06)
(0 -5.133631406e-06 2.211603025e-06)
(0 -1.720512145e-06 7.196486035e-07)
(0 -5.694884849e-07 2.288871253e-07)
(0 -1.897824376e-07 7.298600562e-08)
(0 -6.324512673e-08 2.263460265e-08)
(0 -1.821120837e-08 4.093992578e-09)
(0 -1.97641021e-09 -2.023467596e-09)
(0 1.035262491e-09 -2.917557929e-09)
(0 2.164639754e-09 -2.588156228e-09)
(0 7.388009595e-09 -5.364541999e-09)
(0 5.270427227e-09 -2.352869298e-09)
(0 -8.940903332e-10 -7.529181753e-10)
(0 -542.6100169 5781.045974)
(0 -1583.666989 5855.91705)
(0 -3168.426369 6362.031038)
(0 -6546.096305 7531.592308)
(0 -12384.21536 8717.179428)
(0 -20260.20441 8986.267178)
(0 -27974.16582 7255.490293)
(0 -16079.89502 1592.482696)
(0 -605.1088685 1391.299422)
(0 -408.3902158 1245.326221)
(0 -399.7323436 1067.276772)
(0 -375.5414537 873.4411505)
(0 -335.3307171 682.4411163)
(0 -283.8346121 509.6343486)
(0 -227.8521102 364.3213684)
(0 -173.7786572 249.7033783)
(0 -126.1928309 164.3281744)
(0 -87.44168638 103.9730426)
(0 -57.93468567 63.32361226)
(0 -36.77076693 37.16305366)
(0 -22.39414665 21.03684138)
(0 -13.10637408 11.4963959)
(0 -7.381259543 6.070384313)
(0 -4.005047279 3.09944011)
(0 -2.096034075 1.531385144)
(0 -1.0591302 0.7327008899)
(0 -0.5172210871 0.3397073831)
(0 -0.2443251491 0.1527227581)
(0 -0.1117357106 0.06661906817)
(0 -0.049510257 0.0282134885)
(0 -0.02127200493 0.01160749363)
(0 -0.008868441781 0.004641909675)
(0 -0.003590162794 0.001805419434)
(0 -0.001412210976 0.0006833186545)
(0 -0.0005401061354 0.0002518041664)
(0 -0.0002009658606 9.039154448e-05)
(0 -7.279622318e-05 3.162435154e-05)
(0 -2.568349774e-05 1.078894099e-05)
(0 -8.825612737e-06 3.590713836e-06)
(0 -2.956521445e-06 1.165705565e-06)
(0 -9.739937746e-07 3.692122502e-07)
(0 -3.194255359e-07 1.128906689e-07)
(0 -1.03996823e-07 3.449306391e-08)
(0 -3.176373552e-08 9.929108437e-09)
(0 -5.741001087e-09 2.164639754e-09)
(0 1.082319877e-09 -5.646886315e-10)
(0 9.411477192e-11 -1.882295438e-10)
(0 5.270427227e-09 -1.835238052e-09)
(0 7.952698227e-09 -4.799853368e-09)
(0 1.317606807e-09 -9.411477192e-10)
(0 -510.4748122 6331.39023)
(0 -1339.766098 6446.330673)
(0 -2325.363434 6818.490408)
(0 -5216.05223 8108.212051)
(0 -11471.98232 9806.540079)
(0 -20888.4474 10645.73494)
(0 -31770.24354 8288.059912)
(0 -19163.36309 2843.037943)
(0 -825.4741975 2360.753936)
(0 -611.2275425 2106.522271)
(0 -633.4406174 1803.079948)
(0 -618.2902109 1472.050461)
(0 -565.1430014 1145.995496)
(0 -484.742823 852.06183)
(0 -391.8227507 606.2341071)
(0 -299.737325 413.5254539)
(0 -217.8132513 270.8765684)
(0 -150.8292314 170.6342627)
(0 -99.79004094 103.4960188)
(0 -63.21944877 60.50842601)
(0 -38.42324406 34.1322297)
(0 -22.44001323 18.59315053)
(0 -12.61120059 9.788899766)
(0 -6.828793946 4.984680382)
(0 -3.566824918 2.456830782)
(0 -1.798964712 1.172857706)
(0 -0.876969759 0.5426672574)
(0 -0.4135778237 0.2435098396)
(0 -0.1888453485 0.1060381375)
(0 -0.08355595853 0.04483642981)
(0 -0.03585081419 0.01841947829)
(0 -0.01492740139 0.007356119417)
(0 -0.006035770435 0.002857504893)
(0 -0.002371551927 0.001080260316)
(0 -0.0009060635674 0.0003976526049)
(0 -0.0003368040638 0.0001426029377)
(0 -0.000121886347 4.984492433e-05)
(0 -4.296518156e-05 1.698992803e-05)
(0 -1.475686683e-05 5.649756816e-06)
(0 -4.941966673e-06 1.831238175e-06)
(0 -1.622303381e-06 5.772058962e-07)
(0 -5.245486813e-07 1.76794599e-07)
(0 -1.661596298e-07 5.350424783e-08)
(0 -5.058668991e-08 1.632891293e-08)
(0 -1.237609251e-08 4.235164736e-09)
(0 -1.270549421e-09 0)
(0 8.470329473e-10 -5.646886315e-10)
(0 2.682271e-09 1.882295438e-10)
(0 6.211574947e-09 -2.682271e-09)
(0 4.846910754e-09 -3.105787473e-09)
(0 -427.6695737 6925.462254)
(0 -1096.566811 7079.485264)
(0 -1506.544991 7596.079467)
(0 -3558.046634 8714.681679)
(0 -9846.692478 10991.69562)
(0 -21778.68458 13124.28992)
(0 -35776.86282 12234.55583)
(0 -22007.20099 4487.481583)
(0 -1341.624541 3930.47372)
(0 -966.0642039 3513.001936)
(0 -1034.204154 2995.011996)
(0 -1032.625906 2431.359425)
(0 -955.3193479 1880.919918)
(0 -823.5960005 1389.464399)
(0 -666.3884863 982.3488268)
(0 -509.1361959 666.0655145)
(0 -369.0840222 433.8677094)
(0 -254.8222359 271.9073219)
(0 -168.0605223 164.1514355)
(0 -106.134556 95.56351104)
(0 -64.30942214 53.6996771)
(0 -37.44970401 29.15085197)
(0 -20.98972969 15.29919123)
(0 -11.33711626 7.768522812)
(0 -5.907856751 3.819084407)
(0 -2.973293725 1.818929634)
(0 -1.446568954 0.8398138021)
(0 -0.6809542689 0.3761203007)
(0 -0.3104091205 0.1634956573)
(0 -0.1371289163 0.06901985187)
(0 -0.05875231527 0.02831242806)
(0 -0.02443041517 0.0112916414)
(0 -0.009866021941 0.004380765935)
(0 -0.00387206317 0.001654197324)
(0 -0.001477763467 0.0006082703589)
(0 -0.0005487735412 0.0002179172487)
(0 -0.0001984091858 7.610068694e-05)
(0 -6.987871231e-05 2.591704355e-05)
(0 -2.39843967e-05 8.61277218e-06)
(0 -8.029025307e-06 2.789608897e-06)
(0 -2.628390293e-06 8.783261089e-07)
(0 -8.431271842e-07 2.697329363e-07)
(0 -2.645095665e-07 7.995049874e-08)
(0 -8.107987601e-08 2.315223389e-08)
(0 -2.206991401e-08 4.517509052e-09)
(0 -3.670476105e-09 -2.352869298e-10)
(0 2.352869298e-10 -9.411477192e-11)
(0 3.199902245e-09 -8.470329473e-10)
(0 4.65868121e-09 -3.764590877e-10)
(0 7.10566528e-09 -3.811648263e-09)
(0 -356.4518023 7553.882948)
(0 -669.1488846 7702.195657)
(0 -690.1670196 8164.033001)
(0 -1820.436078 9106.606658)
(0 -7062.37408 11604.88684)
(0 -19645.58718 14872.54243)
(0 -40407.05188 16375.72982)
(0 -27467.4452 7066.117953)
(0 -1799.953845 6443.484205)
(0 -1546.689267 5753.42384)
(0 -1715.083128 4872.262448)
(0 -1732.38229 3922.439301)
(0 -1607.038027 3008.615005)
(0 -1383.313914 2204.348436)
(0 -1115.221635 1546.598735)
(0 -848.2184424 1041.328754)
(0 -611.9714439 674.0216542)
(0 -420.5455053 420.0096497)
(0 -276.1338518 252.2678308)
(0 -173.6712072 146.191462)
(0 -104.8359031 81.81337425)
(0 -60.8404991 44.25002227)
(0 -33.99352974 23.1475886)
(0 -18.30890077 11.71916656)
(0 -9.516418096 5.746019599)
(0 -4.778235317 2.730149872)
(0 -2.319779092 1.257812779)
(0 -1.089895969 0.5622248041)
(0 -0.4959457972 0.2439591873)
(0 -0.2187391877 0.1028208586)
(0 -0.09357902466 0.0421154287)
(0 -0.03885906347 0.01677381543)
(0 -0.01567321456 0.006499552031)
(0 -0.006144047598 0.002451443463)
(0 -0.002342343643 0.0009004699971)
(0 -0.0008689737358 0.0003222863426)
(0 -0.000313886458 0.0001124458825)
(0 -0.0001104531904 3.826499574e-05)
(0 -3.788416031e-05 1.27057295e-05)
(0 -1.26764598e-05 4.115403689e-06)
(0 -4.142273456e-06 1.296901557e-06)
(0 -1.322971349e-06 3.981054852e-07)
(0 -4.126932749e-07 1.180669814e-07)
(0 -1.259255648e-07 3.454012129e-08)
(0 -3.58577281e-08 8.470329473e-09)
(0 -5.929230631e-09 1.411721579e-09)
(0 2.823443158e-10 4.705738596e-11)
(0 2.44698407e-09 1.411721579e-10)
(0 3.246959631e-09 1.270549421e-09)
(0 8.987960718e-09 7.058607894e-10)
(0 -279.3568654 8271.32114)
(0 -486.4167582 8460.518438)
(0 -102.1339903 8732.562204)
(0 -117.1927962 9672.869067)
(0 -4080.75671 11811.32442)
(0 -17007.84159 15816.95762)
(0 -43583.28729 18500.24975)
(0 -31939.44661 11506.31959)
(0 -2654.318654 10432.72846)
(0 -2537.285961 9238.445664)
(0 -2865.188692 7742.027702)
(0 -2896.273349 6164.447189)
(0 -2673.410213 4678.61951)
(0 -2285.612271 3394.787248)
(0 -1829.408168 2361.04207)
(0 -1381.713277 1577.301086)
(0 -990.4031264 1013.868646)
(0 -676.5760593 627.9047562)
(0 -441.87871 375.086538)
(0 -276.5890126 216.3211729)
(0 -166.2508619 120.5445393)
(0 -96.11548966 64.95185082)
(0 -53.5205854 33.86260805)
(0 -28.73868526 17.09252976)
(0 -14.89687344 8.358140171)
(0 -7.461500545 3.961706186)
(0 -3.614494021 1.821252055)
(0 -1.694807861 0.8124828935)
(0 -0.769813066 0.351926629)
(0 -0.3389726749 0.1480872566)
(0 -0.1447993585 0.06056776236)
(0 -0.06004629184 0.02409078696)
(0 -0.02418839391 0.009323309015)
(0 -0.009471145157 0.003512524271)
(0 -0.003606920635 0.001288887637)
(0 -0.001336797609 0.0004608625327)
(0 -0.0004824306268 0.0001606559862)
(0 -0.0001696188183 5.462628415e-05)
(0 -5.81339417e-05 1.812156405e-05)
(0 -1.943785325e-05 5.866126676e-06)
(0 -6.345735554e-06 1.852319883e-06)
(0 -2.021914702e-06 5.7047669e-07)
(0 -6.281219878e-07 1.716182866e-07)
(0 -1.907235853e-07 5.039846036e-08)
(0 -5.510419896e-08 1.388192886e-08)
(0 -1.209374819e-08 3.246959631e-09)
(0 -1.082319877e-09 -4.235164736e-10)
(0 4.42339428e-09 1.882295438e-10)
(0 5.270427227e-09 -4.705738596e-11)
(0 5.082197684e-09 9.411477192e-10)
(0 -167.2545043 9038.88816)
(0 -207.9078208 9278.46746)
(0 522.1836101 9677.245421)
(0 1258.32614 10412.92752)
(0 -918.2855289 12261.36601)
(0 -12956.66185 17313.48837)
(0 -44717.68991 22658.28075)
(0 -35534.9665 18285.30902)
(0 -4067.827771 16593.60418)
(0 -4237.390024 14503.82257)
(0 -4789.081603 11984.64815)
(0 -4795.790481 9413.901255)
(0 -4376.697968 7056.809959)
(0 -3700.891354 5064.169943)
(0 -2932.707797 3488.016905)
(0 -2195.391866 2310.430325)
(0 -1561.367774 1474.106322)
(0 -1059.327614 907.0201489)
(0 -687.7174351 538.7459387)
(0 -428.2132059 309.1619611)
(0 -256.2052252 171.5267713)
(0 -147.5224304 92.06604656)
(0 -81.85285081 47.83510614)
(0 -43.81336865 24.07237432)
(0 -22.64724167 11.73960243)
(0 -11.31512343 5.551144164)
(0 -5.469002385 2.546451912)
(0 -2.559221395 1.133807436)
(0 -1.160341434 0.4902517997)
(0 -0.5100980544 0.2059675067)
(0 -0.2175754942 0.08412006577)
(0 -0.09010351686 0.03341500889)
(0 -0.03625147715 0.01291641675)
(0 -0.01417846893 0.004860890374)
(0 -0.005394005476 0.001781863354)
(0 -0.001997205387 0.0006365411188)
(0 -0.0007201226596 0.0002217059329)
(0 -0.0002529876596 7.532282835e-05)
(0 -8.664436484e-05 2.497184889e-05)
(0 -2.894575102e-05 8.079988456e-06)
(0 -9.437876385e-06 2.552722016e-06)
(0 -3.003578831e-06 7.878347557e-07)
(0 -9.327715045e-07 2.38486832e-07)
(0 -2.837089799e-07 6.908024259e-08)
(0 -8.300922883e-08 1.891706916e-08)
(0 -2.023467596e-08 4.235164736e-09)
(0 -2.776385772e-09 0)
(0 2.870500543e-09 -1.411721579e-10)
(0 3.905763035e-09 -1.97641021e-09)
(0 8.187985157e-09 -2.305811912e-09)
(0 -39.77756483 9811.983334)
(0 151.9405037 10081.30557)
(0 1032.326067 10636.95479)
(0 2466.927795 11418.97662)
(0 2819.804143 13573.02383)
(0 -6610.926849 19020.28006)
(0 -42611.46664 28269.93961)
(0 -38004.12319 28528.3053)
(0 -6435.805102 25845.43036)
(0 -7146.24199 22191.93416)
(0 -7955.110011 18020.95294)
(0 -7824.111538 13932.09704)
(0 -7023.141525 10298.23257)
(0 -5854.405324 7300.837433)
(0 -4583.147787 4975.974882)
(0 -3395.623861 3266.321732)
(0 -2393.813302 2067.772058)
(0 -1611.936442 1263.74543)
(0 -1039.736898 746.2547037)
(0 -643.80818 426.070921)
(0 -383.3467765 235.3437894)
(0 -219.8071549 125.8303127)
(0 -121.5142576 65.1556248)
(0 -64.83418897 32.69023798)
(0 -33.4181036 15.89996019)
(0 -16.65465106 7.500618175)
(0 -8.031830749 3.433464556)
(0 -3.751007973 1.525859523)
(0 -1.697652996 0.6586512634)
(0 -0.7451044089 0.2762919746)
(0 -0.3173518564 0.1126848077)
(0 -0.1312499409 0.04470527033)
(0 -0.05274251238 0.01726072418)
(0 -0.0206056986 0.00648896059)
(0 -0.007831269795 0.002376371827)
(0 -0.002896955029 0.0008481656656)
(0 -0.001043649011 0.0002951711239)
(0 -0.0003663528552 0.0001002044212)
(0 -0.0001253767345 3.320020929e-05)
(0 -4.185698012e-05 1.074009543e-05)
(0 -1.363779514e-05 3.394672766e-06)
(0 -4.336244001e-06 1.047732698e-06)
(0 -1.346970616e-06 3.156138876e-07)
(0 -4.102462908e-07 9.218541909e-08)
(0 -1.199022194e-07 2.686976738e-08)
(0 -3.105787473e-08 5.929230631e-09)
(0 -5.458656771e-09 1.411721579e-09)
(0 2.399926684e-09 0)
(0 3.152844859e-09 -8.470329473e-10)
(0 9.364419806e-09 -8.470329473e-10)
(0 102.0677329 10552.51593)
(0 617.0636351 10857.08429)
(0 1859.854658 11570.36601)
(0 4194.395181 12779.98708)
(0 6683.017916 15072.73444)
(0 1740.253932 20589.24841)
(0 -35209.66468 34481.57453)
(0 -37959.47575 43460.258)
(0 -10404.1989 39283.75041)
(0 -12061.86745 32976.96768)
(0 -13048.91873 26235.29275)
(0 -12518.51085 19921.54488)
(0 -11007.95758 14500.2408)
(0 -9023.149039 10145.94911)
(0 -6967.223498 6838.60035)
(0 -5103.594691 4446.748683)
(0 -3563.944077 2792.461826)
(0 -2380.844967 1694.927367)
(0 -1525.391944 994.9654311)
(0 -939.1241202 565.1786255)
(0 -556.4458336 310.8036018)
(0 -317.710595 165.5379419)
(0 -174.9929255 85.42869854)
(0 -93.06903326 42.73542106)
(0 -47.83686148 20.7317362)
(0 -23.78161906 9.757440034)
(0 -11.44376104 4.45739887)
(0 -5.334034687 1.977283489)
(0 -2.409908983 0.8521139569)
(0 -1.05606451 0.3569188489)
(0 -0.4491621984 0.1453742993)
(0 -0.1855276004 0.05760446385)
(0 -0.07446778699 0.02221667005)
(0 -0.02906282133 0.008343712635)
(0 -0.0110348004 0.003052804621)
(0 -0.00407840609 0.001088676859)
(0 -0.00146808381 0.0003785805758)
(0 -0.0005149586213 0.0001284288295)
(0 -0.0001761087376 4.252048926e-05)
(0 -5.875119343e-05 1.374838e-05)
(0 -1.913033323e-05 4.345702536e-06)
(0 -6.082637709e-06 1.340994328e-06)
(0 -1.888271726e-06 4.032347403e-07)
(0 -5.724060428e-07 1.191493012e-07)
(0 -1.693124747e-07 3.529303947e-08)
(0 -4.569272177e-08 9.364419806e-09)
(0 -8.658559016e-09 2.117582368e-09)
(0 5.176312455e-10 -9.411477192e-11)
(0 3.152844859e-09 -6.588034034e-10)
(0 9.834993665e-09 -2.823443158e-10)
(0 264.790799 11219.26487)
(0 1169.790588 11578.72907)
(0 2955.228859 12452.0514)
(0 5969.296221 14130.42946)
(0 10629.06547 16864.23093)
(0 12797.91324 23329.93913)
(0 -19740.45705 40514.11412)
(0 -33201.9473 64038.86955)
(0 -16919.09542 58015.35833)
(0 -20194.69966 47392.30725)
(0 -21010.5328 36835.9179)
(0 -19559.16348 27425.77614)
(0 -16798.7373 19635.6873)
(0 -13516.04577 13551.18301)
(0 -10282.34821 9029.085841)
(0 -7441.762385 5814.529616)
(0 -5145.634618 3621.703945)
(0 -3409.432837 2183.08549)
(0 -2169.48564 1273.991276)
(0 -1327.970009 720.0302537)
(0 -782.98746 394.2419818)
(0 -445.1820582 209.1898766)
(0 -244.3167785 107.6034657)
(0 -129.5311513 53.67462303)
(0 -66.39608462 25.97326817)
(0 -32.9289884 12.19734048)
(0 -15.81198729 5.561071961)
(0 -7.356292886 2.462563073)
(0 -3.318017635 1.059590334)
(0 -1.451844067 0.4432013994)
(0 -0.6166662414 0.180289637)
(0 -0.2544075701 0.07135806712)
(0 -0.1020032635 0.02749257334)
(0 -0.03976956408 0.01031538323)
(0 -0.01508630566 0.003770943624)
(0 -0.005571179075 0.001343708033)
(0 -0.002003896994 0.0004669246534)
(0 -0.0007024129418 0.0001582928113)
(0 -0.000240057137 5.237458823e-05)
(0 -8.003176685e-05 1.692324771e-05)
(0 -2.604518081e-05 5.343130889e-06)
(0 -8.278711797e-06 1.64752614e-06)
(0 -2.568721527e-06 4.972553974e-07)
(0 -7.782821064e-07 1.468661016e-07)
(0 -2.297812156e-07 4.296339338e-08)
(0 -6.413921706e-08 1.167023172e-08)
(0 -1.496424873e-08 2.023467596e-09)
(0 -4.235164736e-10 4.705738596e-11)
(0 3.011672701e-09 -6.117460175e-10)
(0 1.030556752e-08 -2.352869298e-10)
(0 461.5319282 11762.38074)
(0 1849.850166 12198.5696)
(0 4411.555055 13284.85389)
(0 8606.574713 15469.65247)
(0 15882.52758 19360.90574)
(0 25390.13712 26456.08051)
(0 5499.265745 45253.29018)
(0 -20458.23154 90427.20161)
(0 -27050.7612 82763.27426)
(0 -33241.30788 65526.34899)
(0 -33015.44984 49647.72592)
(0 -29718.74145 36198.34524)
(0 -24882.5507 25474.28484)
(0 -19629.7505 17333.34029)
(0 -14703.87689 11414.75753)
(0 -10510.97659 7279.739807)
(0 -7195.388203 4497.65905)
(0 -4728.557637 2692.641589)
(0 -2988.44718 1562.304769)
(0 -1818.873414 878.6494603)
(0 -1067.286211 479.0722915)
(0 -604.3491111 253.2832849)
(0 -330.5081791 129.8767031)
(0 -174.6992308 64.60851883)
(0 -89.31414403 31.18972208)
(0 -44.19381528 14.61636423)
(0 -21.17853844 6.651631516)
(0 -9.835516314 2.940647263)
(0 -4.429270657 1.263446561)
(0 -1.935365207 0.5277763129)
(0 -0.8210055307 0.21444054)
(0 -0.338324664 0.08478448872)
(0 -0.1355104709 0.03263392597)
(0 -0.052784451 0.01223369888)
(0 -0.02000647559 0.004468630828)
(0 -0.007382424966 0.001591148286)
(0 -0.002653499173 0.0005525333793)
(0 -0.0009295086394 0.0001871994106)
(0 -0.0003174783483 6.19047912e-05)
(0 -0.0001057826508 1.998856583e-05)
(0 -3.440600774e-05 6.304372112e-06)
(0 -1.092856026e-05 1.942764179e-06)
(0 -3.388978822e-06 5.854409387e-07)
(0 -1.026650989e-06 1.720888605e-07)
(0 -3.045083445e-07 5.006905866e-08)
(0 -8.667970494e-08 1.270549421e-08)
(0 -2.018761858e-08 2.870500543e-09)
(0 -2.070524982e-09 -1.882295438e-10)
(0 2.870500543e-09 1.505836351e-09)
(0 1.063496923e-08 3.199902245e-09)
(0 700.9796603 12110.53613)
(0 2692.263734 12639.27329)
(0 6226.311724 13990.32798)
(0 12045.34808 16711.84876)
(0 21615.49351 21884.9423)
(0 38690.29768 30482.64317)
(0 44230.66405 51322.48063)
(0 4308.036772 121548.7649)
(0 -41819.94804 113167.7616)
(0 -53310.24799 86587.26597)
(0 -50338.53655 63862.8733)
(0 -43732.60457 45567.47649)
(0 -35663.74225 31512.56704)
(0 -27575.57309 21139.77112)
(0 -20335.9487 13760.86025)
(0 -14358.86086 8692.558202)
(0 -9732.732836 5328.211654)
(0 -6344.787119 3168.877834)
(0 -3983.477768 1828.449737)
(0 -2411.202486 1023.516443)
(0 -1408.353635 555.8342276)
(0 -794.3776465 292.8630873)
(0 -432.9915446 149.7299477)
(0 -228.2181324 74.2945782)
(0 -116.3882392 35.78584249)
(0 -57.46707896 16.73752175)
(0 -27.48770426 7.603841406)
(0 -12.74447784 3.35649952)
(0 -5.730888586 1.440165568)
(0 -2.500850088 0.600869236)
(0 -1.059658066 0.2438739566)
(0 -0.4362141842 0.09632744173)
(0 -0.1745540534 0.03704405581)
(0 -0.06793485913 0.01387579672)
(0 -0.02572885626 0.00506472777)
(0 -0.009487276523 0.00180219285)
(0 -0.003407845916 0.0006254332229)
(0 -0.001193041483 0.0002117792244)
(0 -0.0004072679818 6.999828513e-05)
(0 -0.000135632233 2.259130985e-05)
(0 -4.409102952e-05 7.123076513e-06)
(0 -1.399759591e-05 2.19532117e-06)
(0 -4.339396846e-06 6.604504119e-07)
(0 -1.313606929e-06 1.93735258e-07)
(0 -3.891645819e-07 5.56218302e-08)
(0 -1.113377752e-07 1.57642243e-08)
(0 -2.78109151e-08 3.717533491e-09)
(0 -1.788180666e-09 8.940903332e-10)
(0 6.305689718e-09 3.341074403e-09)
(0 5.646886315e-09 5.129255069e-09)
(0 990.2690848 12169.66161)
(0 3729.642008 12805.69443)
(0 8484.130525 14473.04127)
(0 16501.18904 17902.56429)
(0 29653.322 24735.0011)
(0 54827.67545 37561.3455)
(0 96565.38748 63072.09294)
(0 41387.04945 152345.6135)
(0 -62012.26014 146794.2166)
(0 -82546.19619 108433.029)
(0 -74035.23932 77828.49756)
(0 -62069.04772 54350.13696)
(0 -49310.25607 36945.84176)
(0 -37381.45728 24444.25762)
(0 -27151.08981 15734.61065)
(0 -18943.62519 9848.845511)
(0 -12719.06857 5991.71329)
(0 -8228.319554 3541.326447)
(0 -5133.808571 2032.736414)
(0 -3091.488923 1132.895275)