/*--------------------------------*- C++ -*----------------------------------*\
  =========                 |
  \\      /  F ield         | OpenFOAM: The Open Source CFD Toolbox
   \\    /   O peration     | Website:  https://openfoam.org
    \\  /    A nd           | Version:  6
     \\/     M anipulation  |
\*---------------------------------------------------------------------------*/
FoamFile
{
    version     2.0;
    format      ascii;
    class       volVectorField;
    location    "0.17";
    object      Marangoni;
}
// * * * * * * * * * * * * * * * * * * * * * * * * * * * * * * * * * * * * * //

dimensions      [1 -2 -2 0 0 0 0];

internalField   nonuniform List<vector> 
2500
(
(-0 4.74289213e-11 -1.144690818e-09)
(-0 1.667406491e-10 -1.696085681e-09)
(-0 1.195670959e-10 -9.255747914e-10)
(-0 5.586484691e-11 -3.288185444e-10)
(-0 5.845426996e-12 -2.69137224e-11)
(-0 6.402648656e-12 -2.220136872e-11)
(-0 5.13496757e-07 -1.010833915e-06)
(-0 7.803021949e-06 -17.7633148)
(-0 2.711632155e-07 -9.774528692)
(-0 4.463173895e-09 -2.499869098e-08)
(-0 1.980295124e-14 -1.064643867e-13)
(-0 2.422809633e-14 -1.264671799e-13)
(-0 2.587566212e-14 -1.312029485e-13)
(-0 2.80339804e-14 -1.375313988e-13)
(-0 1.870441622e-14 -8.834505382e-14)
(-0 1.96425822e-14 -8.891728414e-14)
(-0 5.594466669e-15 -2.418177025e-14)
(-0 3.33620008e-15 -1.373206037e-14)
(-0 3.831605513e-15 -1.499143321e-14)
(-0 3.260021644e-15 -1.211303025e-14)
(-0 1.77805062e-15 -6.272507049e-15)
(-0 2.165785884e-15 -7.25620134e-15)
(-0 4.663473844e-16 -1.484939745e-15)
(-0 8.401541727e-16 -2.545059678e-15)
(-0 1.188971092e-16 -3.430590046e-16)
(-0 5.962327148e-17 -1.640756199e-16)
(-0 8.261999441e-17 -2.171430581e-16)
(-0 2.704110944e-17 -6.797236747e-17)
(-0 1.330078183e-17 -3.20218279e-17)
(-0 1.601884764e-18 -3.698857192e-18)
(-0 4.404983453e-19 -9.768662239e-19)
(-0 3.218895383e-19 -6.864441423e-19)
(-0 1.507625228e-19 -3.095891132e-19)
(-0 8.030021312e-20 -1.589598758e-19)
(-0 2.215842132e-20 -4.232545458e-20)
(-0 3.852878988e-20 -7.115910292e-20)
(-0 5.489457589e-21 -9.872728625e-21)
(-0 4.739959394e-21 -8.405191449e-21)
(-0 1.085459566e-22 -1.720245286e-22)
(-0 4.185498264e-23 -5.242615895e-23)
(-0 1.664657646e-23 -6.679181914e-24)
(-0 0 0)
(-0 0 0)
(-0 -0 0)
(-0 -0 0)
(-0 -0 0)
(-0 -0 -0)
(-0 -0 -0)
(-0 0 -0)
(-0 0 -0)
(-0 2.982732452e-11 -3.595436156e-10)
(-0 2.39370323e-10 -1.096502232e-09)
(-0 4.764156861e-10 -1.445212103e-09)
(-0 6.106356e-10 -1.339785846e-09)
(-0 2.359065311e-10 -3.867021063e-10)
(-0 2.501399367e-11 -2.982764121e-11)
(-0 1.269036908e-06 -8.692197625e-07)
(-0 2.247445119e-05 -18.68404707)
(-0 7.642904269e-07 -10.6714153)
(-0 6.907254524e-09 -1.448149101e-08)
(-0 1.335259619e-13 -2.742528195e-13)
(-0 1.945658373e-13 -3.946334012e-13)
(-0 1.416454592e-13 -2.835701374e-13)
(-0 5.417258439e-14 -1.064025204e-13)
(-0 5.24461777e-14 -1.003172156e-13)
(-0 9.360360067e-14 -1.731537292e-13)
(-0 3.664832265e-14 -6.51886593e-14)
(-0 3.563471907e-14 -6.068244483e-14)
(-0 1.143991753e-14 -1.859283234e-14)
(-0 1.961259652e-14 -3.036308681e-14)
(-0 8.413835131e-15 -1.239512645e-14)
(-0 9.159298854e-15 -1.283619573e-14)
(-0 6.899189285e-15 -9.200145179e-15)
(-0 6.556028551e-16 -8.324060142e-16)
(-0 1.177983574e-15 -1.425363802e-15)
(-0 6.647478621e-16 -7.673795562e-16)
(-0 2.579228195e-16 -2.844039596e-16)
(-0 1.91916794e-16 -2.023983246e-16)
(-0 9.488971471e-17 -9.583629055e-17)
(-0 4.611945158e-18 -4.466663316e-18)
(-0 2.298151892e-18 -2.137117149e-18)
(-0 1.549709432e-18 -1.385511032e-18)
(-0 1.028084781e-18 -8.847620089e-19)
(-0 4.159827614e-19 -3.450087845e-19)
(-0 2.527626354e-19 -2.023459576e-19)
(-0 1.972350631e-19 -1.524820041e-19)
(-0 3.73444262e-20 -2.794606121e-20)
(-0 2.799686053e-20 -2.018262568e-20)
(-0 1.060347571e-21 -7.30645368e-22)
(-0 2.093212758e-22 -1.343952622e-22)
(-0 9.606265578e-23 -4.580130195e-23)
(-0 1.93637374e-23 1.014693663e-24)
(-0 0 0)
(-0 -0 0)
(-0 -0 0)
(-0 -0 0)
(-0 -0 0)
(-0 -0 -0)
(-0 0 -0)
(-0 0 -0)
(-0 5.286034781e-11 -4.821946188e-10)
(-0 1.187192756e-10 -3.883492921e-10)
(-0 1.611126916e-10 -3.318150673e-10)
(-0 9.405508681e-10 -1.36024771e-09)
(-0 1.586524007e-09 -1.697077777e-09)
(-0 3.241477567e-10 -2.486287403e-10)
(-0 1.183009762e-06 -5.125624016e-07)
(-0 3.805150576e-05 -21.52662095)
(-0 1.262912129e-06 -13.02739138)
(-0 7.729811672e-09 -1.212163245e-08)
(-0 6.431154367e-13 -1.019190374e-12)
(-0 1.462635705e-13 -2.337247067e-13)
(-0 2.081110025e-13 -3.33012559e-13)
(-0 3.717527469e-13 -5.889459132e-13)
(-0 2.312789176e-13 -3.585431179e-13)
(-0 2.009480457e-13 -3.018321182e-13)
(-0 1.347678277e-13 -1.946432075e-13)
(-0 8.258377212e-14 -1.140698754e-13)
(-0 2.867306009e-14 -3.774268011e-14)
(-0 2.196800095e-14 -2.749963589e-14)
(-0 1.248084707e-14 -1.484336169e-14)
(-0 1.00080394e-14 -1.130607036e-14)
(-0 1.201727869e-14 -1.290068627e-14)
(-0 6.779616933e-15 -6.921427007e-15)
(-0 2.957997653e-15 -2.874920372e-15)
(-0 1.533462642e-15 -1.42057897e-15)
(-0 1.432675308e-15 -1.266701865e-15)
(-0 3.990651061e-16 -3.372077349e-16)
(-0 1.690988024e-16 -1.367482301e-16)
(-0 6.830161355e-17 -5.293428743e-17)
(-0 3.022986933e-18 -2.248300813e-18)
(-0 3.120124104e-18 -2.229830261e-18)
(-0 2.672216957e-18 -1.837416152e-18)
(-0 6.592073295e-19 -4.366739239e-19)
(-0 7.13503319e-19 -4.558630406e-19)
(-0 3.026385862e-19 -1.866791753e-19)
(-0 3.623015327e-20 -2.159835029e-20)
(-0 6.118017131e-20 -3.514649265e-20)
(-0 1.840618724e-20 -1.016309636e-20)
(-0 8.066977009e-22 -4.289880797e-22)
(-0 1.8543133e-22 -8.126164296e-23)
(-0 6.999012202e-23 -1.194579763e-23)
(-0 5.795493649e-24 2.16249763e-25)
(-0 -0 0)
(-0 -0 -0)
(-0 -0 0)
(-0 -0 0)
(-0 -0 0)
(-0 -0 0)
(-0 0 0)
(-0 6.532449764e-11 -5.136127346e-10)
(-0 2.39106678e-10 -6.457629064e-10)
(-0 5.351783913e-10 -8.764649915e-10)
(-0 7.749246841e-10 -8.693765943e-10)
(-0 3.949595733e-09 -3.183947059e-09)
(-0 4.914082692e-09 -2.807829904e-09)
(-0 1.373645302e-06 -4.233889107e-07)
(-0 5.430143689e-05 -25.94534728)
(-0 1.799920862e-06 -17.66067749)
(-0 1.024535539e-08 -1.565774017e-08)
(-0 2.249192054e-13 -3.546987488e-13)
(-0 8.403937172e-13 -1.344503149e-12)
(-0 9.921288847e-13 -1.584827083e-12)
(-0 5.3695649e-13 -8.423892352e-13)
(-0 2.548389376e-13 -3.871725588e-13)
(-0 1.033222457e-13 -1.504524897e-13)
(-0 7.890977004e-14 -1.093694268e-13)
(-0 1.22335222e-13 -1.607139846e-13)
(-0 3.756168081e-14 -4.666937591e-14)
(-0 6.443625682e-14 -7.565897824e-14)
(-0 2.737631611e-14 -3.038230556e-14)
(-0 3.633688432e-14 -3.814640713e-14)
(-0 8.646830654e-15 -8.596881675e-15)
(-0 3.788748098e-15 -3.572567982e-15)
(-0 2.774109636e-15 -2.484794769e-15)
(-0 1.140363097e-15 -9.718539311e-16)
(-0 1.210421449e-15 -9.831070764e-16)
(-0 9.840643339e-16 -7.629611509e-16)
(-0 3.394375459e-16 -2.516204428e-16)
(-0 3.540081252e-17 -2.512909077e-17)
(-0 6.104887172e-17 -4.155890382e-17)
(-0 1.850169006e-17 -1.209590445e-17)
(-0 5.194800585e-18 -3.266141716e-18)
(-0 9.120425692e-19 -5.521712027e-19)
(-0 2.077188906e-18 -1.212366549e-18)
(-0 3.627441998e-19 -2.04337651e-19)
(-0 1.163712032e-19 -6.333261149e-20)
(-0 3.603357248e-20 -1.895036961e-20)
(-0 3.924448624e-20 -1.993636422e-20)
(-0 8.359599165e-21 -4.053999789e-21)
(-0 5.014303524e-22 -2.242520639e-22)
(-0 1.215563957e-22 -4.996784643e-23)
(-0 2.192811032e-23 -8.594937713e-24)
(-0 -0 -0)
(-0 -0 -0)
(-0 -0 0)
(-0 -0 0)
(-0 -0 0)
(-0 0 0)
(-0 0 0)
(-0 2.521921245e-11 -1.905257648e-10)
(-0 9.829627592e-11 -2.436329369e-10)
(-0 7.4179195e-10 -1.057476153e-09)
(-0 2.651277974e-09 -2.48639146e-09)
(-0 6.509066443e-09 -4.213172287e-09)
(-0 4.273013895e-08 -1.941172963e-08)
(-0 2.44213645e-06 -5.776711803e-07)
(-0 6.93532607e-05 -34.04024547)
(-0 2.314135482e-06 -26.18672259)
(-0 1.752203535e-08 -3.021947988e-08)
(-0 9.724246781e-13 -1.719136859e-12)
(-0 2.013269281e-12 -3.548984508e-12)
(-0 4.94335613e-13 -8.505627991e-13)
(-0 4.147972922e-13 -6.848040954e-13)
(-0 1.662897271e-13 -2.602776474e-13)
(-0 5.006907252e-13 -7.376244411e-13)
(-0 4.805782196e-14 -6.639374906e-14)
(-0 3.035819106e-13 -3.928166536e-13)
(-0 6.867909926e-14 -8.325550866e-14)
(-0 1.150924611e-13 -1.308701355e-13)
(-0 6.588735795e-14 -7.039901467e-14)
(-0 2.828905792e-14 -2.846054914e-14)
(-0 2.06687948e-14 -1.962204257e-14)
(-0 1.44022096e-15 -1.293058241e-15)
(-0 2.563706996e-15 -2.181517863e-15)
(-0 7.178974707e-15 -5.801852035e-15)
(-0 8.659343096e-16 -6.660059302e-16)
(-0 5.48749768e-16 -4.024298301e-16)
(-0 3.224919483e-16 -2.259167093e-16)
(-0 1.725769217e-16 -1.156842126e-16)
(-0 1.320753382e-16 -8.48559163e-17)
(-0 6.951614329e-17 -4.287284535e-17)
(-0 2.599825951e-17 -1.541372319e-17)
(-0 7.20338778e-18 -4.111054869e-18)
(-0 4.00029727e-18 -2.200470728e-18)
(-0 1.279363666e-19 -6.79156368e-20)
(-0 1.409519044e-19 -7.229208159e-20)
(-0 6.256858045e-20 -3.102551117e-20)
(-0 6.122928727e-20 -2.943381893e-20)
(-0 1.749749485e-20 -8.183693807e-21)
(-0 8.18312817e-22 -3.848281896e-22)
(-0 1.994689151e-22 -8.822945398e-23)
(-0 5.726190791e-23 -2.540493098e-23)
(-0 1.453198407e-24 -2.242077543e-24)
(-0 -0 -0)
(-0 -0 -0)
(-0 -0 0)
(-0 -0 0)
(-0 -0 0)
(-0 0 0)
(-0 6.218948757e-12 -5.067631022e-11)
(-0 2.100256583e-11 -5.364051901e-11)
(-0 3.405399554e-10 -4.752198127e-10)
(-0 4.888904504e-09 -4.317224209e-09)
(-0 3.30089992e-08 -1.948478278e-08)
(-0 1.087387729e-07 -4.361035153e-08)
(-0 4.441728628e-06 -1.002908669e-06)
(-0 8.38338436e-05 -50.60021963)
(-0 2.87545264e-06 -41.5885214)
(-0 3.110196179e-08 -6.493364266e-08)
(-0 3.994868808e-12 -8.24636329e-12)
(-0 1.176298014e-12 -2.33172169e-12)
(-0 7.247900494e-13 -1.353387677e-12)
(-0 7.47739112e-13 -1.299775875e-12)
(-0 1.428664938e-13 -2.298030066e-13)
(-0 1.642283777e-13 -2.439953931e-13)
(-0 4.136601217e-13 -5.680737849e-13)
(-0 4.566712901e-13 -5.809483002e-13)
(-0 2.764704532e-13 -3.267485393e-13)
(-0 6.024300893e-14 -6.635746598e-14)
(-0 1.322683609e-13 -1.362284883e-13)
(-0 5.02345653e-14 -4.853113932e-14)
(-0 1.31944309e-14 -1.199302497e-14)
(-0 2.568465612e-14 -2.202778205e-14)
(-0 3.087317828e-14 -2.504934922e-14)
(-0 1.103333232e-14 -8.490251466e-15)
(-0 5.602693103e-15 -4.098408308e-15)
(-0 5.524308775e-16 -3.84978576e-16)
(-0 3.671883294e-16 -2.442634067e-16)
(-0 3.153484495e-16 -2.006237069e-16)
(-0 6.784161818e-17 -4.134907977e-17)
(-0 5.624881821e-17 -3.289784257e-17)
(-0 5.803787517e-17 -3.262186565e-17)
(-0 2.707610685e-17 -1.464679045e-17)
(-0 5.671067155e-18 -2.956410692e-18)
(-0 3.615707707e-19 -1.818849316e-19)
(-0 3.058283735e-19 -1.485984843e-19)
(-0 7.10405077e-20 -3.338170896e-20)
(-0 1.070053082e-19 -4.873967234e-20)
(-0 3.265639823e-20 -1.451096474e-20)
(-0 1.664240294e-21 -7.162978563e-22)
(-0 3.069075201e-22 -1.261930003e-22)
(-0 9.815578411e-23 -4.25561319e-23)
(-0 1.097164798e-23 -5.304174187e-24)
(-0 -0 0)
(-0 -0 0)
(-0 -0 0)
(-0 -0 0)
(-0 -0 0)
(-0 0 0)
(-0 3.159183947e-12 -2.966778422e-11)
(-0 1.934193644e-11 -5.689039958e-11)
(-0 1.927885066e-10 -3.012492771e-10)
(-0 1.252320239e-09 -1.191916006e-09)
(-0 8.084966077e-08 -4.99295755e-08)
(-0 1.945655733e-06 -7.923807202e-07)
(-0 1.665678526e-05 -4.08157757e-06)
(-0 0.0001245932636 -79.78627717)
(-0 3.633171033e-06 -68.71009717)
(-0 4.740014804e-08 -1.211588548e-07)
(-0 4.377864765e-12 -1.046006181e-11)
(-0 1.530438842e-12 -3.345501286e-12)
(-0 1.022561296e-12 -2.025361837e-12)
(-0 7.743220118e-13 -1.386294208e-12)
(-0 1.091697906e-12 -1.769847128e-12)
(-0 5.956861779e-13 -8.780105563e-13)
(-0 1.005730365e-12 -1.354502736e-12)
(-0 8.157177127e-13 -1.009072358e-12)
(-0 4.674619346e-13 -5.338499257e-13)
(-0 1.379432529e-13 -1.461285612e-13)
(-0 2.795379062e-13 -2.758966967e-13)
(-0 6.562184558e-14 -6.058571904e-14)
(-0 9.828508178e-14 -8.519501046e-14)
(-0 8.056188592e-14 -6.578189654e-14)
(-0 5.554071189e-14 -4.28504022e-14)
(-0 2.257060074e-14 -1.64988866e-14)
(-0 1.153057007e-14 -8.006254458e-15)
(-0 1.379160588e-15 -9.117350423e-16)
(-0 2.0090453e-16 -1.267202457e-16)
(-0 4.764202139e-16 -2.872792949e-16)
(-0 6.26755616e-17 -3.619604014e-17)
(-0 7.511618423e-17 -4.161771424e-17)
(-0 9.146311845e-17 -4.869149482e-17)
(-0 5.210408561e-17 -2.669166255e-17)
(-0 1.264185321e-17 -6.240288919e-18)
(-0 4.954153857e-19 -2.359452243e-19)
(-0 5.810032383e-19 -2.672582608e-19)
(-0 9.332570208e-20 -4.15115512e-20)
(-0 1.867621709e-19 -8.045327227e-20)
(-0 6.635255742e-20 -2.774945217e-20)
(-0 2.048988269e-21 -8.234680534e-22)
(-0 5.390133315e-22 -2.070550963e-22)
(-0 1.939479588e-22 -6.938093522e-23)
(-0 3.548399111e-23 -8.068711158e-24)
(-0 0 0)
(-0 -0 0)
(-0 -0 0)
(-0 -0 0)
(-0 -0 0)
(-0 0 0)
(-0 2.115271124e-12 -2.253498747e-11)
(-0 2.017904929e-11 -7.450928295e-11)
(-0 1.673754276e-10 -3.357178599e-10)
(-0 5.06269956e-10 -5.822732902e-10)
(-0 1.732006789e-09 -1.218704473e-09)
(-0 1.287508186e-05 -5.829708805e-06)
(-0 0.0001718124546 -0.00017546177)
(-0 0.05434752735 -133.1844475)
(-0 4.566411448e-06 -115.8833352)
(-0 6.916231575e-08 -2.112514406e-07)
(-0 4.532795601e-12 -1.210105047e-11)
(-0 8.046827966e-13 -1.871372703e-12)
(-0 1.746976155e-12 -3.555056479e-12)
(-0 3.360133161e-12 -6.032851409e-12)
(-0 2.377683973e-12 -3.801559229e-12)
(-0 9.195745092e-13 -1.321274485e-12)
(-0 1.24876809e-12 -1.626067946e-12)
(-0 1.031545356e-12 -1.226509908e-12)
(-0 3.720492332e-13 -4.066385935e-13)
(-0 8.58996007e-13 -8.681233599e-13)
(-0 4.118947534e-13 -3.869137427e-13)
(-0 2.15845686e-13 -1.893235269e-13)
(-0 1.833042857e-13 -1.507441588e-13)
(-0 9.586237434e-14 -7.418327336e-14)
(-0 1.025772347e-13 -7.494096719e-14)
(-0 2.836172776e-14 -1.961969473e-14)
(-0 1.817714402e-14 -1.193813719e-14)
(-0 3.171435285e-15 -1.982318994e-15)
(-0 5.550284546e-16 -3.309053963e-16)
(-0 9.19019567e-16 -5.23682842e-16)
(-0 2.482012451e-16 -1.354303186e-16)
(-0 3.921794086e-16 -2.052655206e-16)
(-0 1.697125805e-16 -8.534140293e-17)
(-0 1.430434361e-17 -6.921071831e-18)
(-0 2.422278108e-17 -1.129248534e-17)
(-0 7.717391809e-18 -3.47102306e-18)
(-0 1.038046342e-18 -4.509309602e-19)
(-0 2.492919403e-19 -1.047167039e-19)
(-0 3.181288265e-19 -1.294246273e-19)
(-0 1.129767691e-19 -4.454535286e-20)
(-0 3.49337672e-21 -1.324174833e-21)
(-0 6.588317917e-22 -2.329527932e-22)
(-0 3.295518961e-22 -1.093519909e-22)
(-0 6.170730238e-23 -1.93465688e-23)
(-0 0 -0)
(-0 -0 0)
(-0 -0 0)
(-0 -0 0)
(-0 -0 0)
(-0 -0 0)
(-0 4.811440815e-13 -5.95988642e-12)
(-0 7.39010813e-12 -3.546167096e-11)
(-0 9.801832555e-11 -2.867708133e-10)
(-0 3.571970726e-10 -5.548635539e-10)
(-0 6.606722565e-09 -5.645212762e-09)
(-0 1.338611351e-06 -6.821263158e-07)
(-0 0.0002474550978 -0.281440763)
(-0 0.5092183929 -240.1573665)
(-0 6.069993269e-06 -196.5534092)
(-0 1.227586549e-07 -4.241166686e-07)
(-0 7.952928747e-12 -2.263645085e-11)
(-0 1.875412557e-12 -4.464777349e-12)
(-0 4.89788134e-12 -9.931344732e-12)
(-0 3.554402846e-12 -6.247466519e-12)
(-0 2.346463967e-12 -3.630310814e-12)
(-0 1.535672931e-12 -2.118558384e-12)
(-0 1.155267125e-12 -1.436648612e-12)
(-0 1.538856587e-12 -1.740845938e-12)
(-0 1.187024149e-12 -1.231055879e-12)
(-0 4.790283009e-13 -4.584672074e-13)
(-0 9.822581477e-13 -8.725259034e-13)
(-0 6.787593522e-13 -5.623773358e-13)
(-0 3.401105446e-13 -2.639852485e-13)
(-0 1.098025399e-13 -8.014709548e-14)
(-0 2.137902306e-14 -1.472527326e-14)
(-0 5.595715563e-14 -3.648046068e-14)
(-0 2.29917515e-14 -1.422666155e-14)
(-0 4.256179606e-15 -2.505884764e-15)
(-0 3.194427967e-15 -1.79362113e-15)
(-0 3.185348864e-15 -1.709197898e-15)
(-0 1.038428061e-15 -5.335024299e-16)
(-0 6.675197301e-16 -3.289351551e-16)
(-0 8.31539539e-17 -3.936576743e-17)
(-0 2.535255765e-17 -1.154779609e-17)
(-0 7.080069335e-18 -3.107163435e-18)
(-0 1.408448023e-17 -5.963119309e-18)
(-0 1.902740344e-18 -7.780862783e-19)
(-0 5.17527876e-19 -2.04640129e-19)
(-0 4.993908909e-19 -1.911869373e-19)
(-0 1.571273809e-19 -5.821989276e-20)
(-0 4.739263494e-21 -1.686260483e-21)
(-0 1.436644944e-21 -4.843117313e-22)
(-0 4.285192925e-22 -1.378904738e-22)
(-0 8.160055057e-23 -2.633749114e-23)
(-0 0 -0)
(-0 0 -0)
(-0 -0 0)
(-0 -0 -0)
(-0 -0 0)
(-0 -0 0)
(-0 5.028451435e-14 -8.12361852e-13)
(-0 8.602306736e-13 -5.527787588e-12)
(-0 7.56163756e-12 -3.794704156e-11)
(-0 2.315071346e-10 -5.664285364e-10)
(-0 8.722682819e-08 -9.733869959e-08)
(-0 2.563302715e-05 -1.645027432e-05)
(-0 0.0002762062952 -2.159306206)
(-0 0.2100632339 -374.8268924)
(-0 1.014568668e-05 -326.7134045)
(-0 2.559494438e-07 -9.347751511e-07)
(-0 7.210030339e-12 -2.087953465e-11)
(-0 5.552874684e-12 -1.307393147e-11)
(-0 3.925928693e-12 -7.729375233e-12)
(-0 7.043864822e-12 -1.188295957e-11)
(-0 4.507155006e-12 -6.643878632e-12)
(-0 3.360319488e-12 -4.39587112e-12)
(-0 4.120526599e-12 -4.843580472e-12)
(-0 2.7717244e-12 -2.957437172e-12)
(-0 1.643656826e-12 -1.605358858e-12)
(-0 1.434976793e-12 -1.291999113e-12)
(-0 9.188038358e-13 -7.67188205e-13)
(-0 1.336803138e-12 -1.04052458e-12)
(-0 3.251465124e-13 -2.369860092e-13)
(-0 3.536828855e-13 -2.423437441e-13)
(-0 2.63793551e-14 -1.705200037e-14)
(-0 8.179766033e-14 -5.003809371e-14)
(-0 2.484316874e-14 -1.442223531e-14)
(-0 2.79398832e-14 -1.543174595e-14)
(-0 1.55354719e-14 -8.182344891e-15)
(-0 4.440359222e-15 -2.23483057e-15)
(-0 2.066857142e-15 -9.9596493e-16)
(-0 7.218538262e-17 -3.336236974e-17)
(-0 1.000813284e-16 -4.443675991e-17)
(-0 5.461091381e-17 -2.332951036e-17)
(-0 1.299913856e-17 -5.350415584e-18)
(-0 1.283677909e-17 -5.097249124e-18)
(-0 7.512516083e-18 -2.881332622e-18)
(-0 4.430885827e-19 -1.643280686e-19)
(-0 8.414100367e-19 -3.021348315e-19)
(-0 2.558425876e-19 -8.888920751e-20)
(-0 7.032324653e-21 -2.349749165e-21)
(-0 1.057828354e-21 -3.382965991e-22)
(-0 6.964264382e-22 -2.103076091e-22)
(-0 1.367182902e-22 -3.899415727e-23)
(-0 0 -0)
(-0 0 0)
(-0 -0 0)
(-0 -0 0)
(-0 -0 0)
(-0 -0 0)
(-0 1.452666568e-15 -3.070077312e-14)
(-0 1.190713149e-13 -1.360561678e-12)
(-0 2.582855925e-13 -3.023501383e-12)
(-0 1.1642863e-11 -5.812444904e-11)
(-0 1.337967792e-08 -2.197924155e-08)
(-0 6.314678487e-06 -4.807212665e-06)
(-0 0.0002919123813 -1.31899023)
(-0 -0.9910519837 -584.8353637)
(-0 1.436763763e-05 -536.255558)
(-0 3.439876797e-07 -1.283525239e-06)
(-0 1.059670302e-11 -3.010320783e-11)
(-0 4.029081159e-12 -9.122330395e-12)
(-0 1.241128653e-11 -2.323488244e-11)
(-0 2.83671506e-12 -4.520195771e-12)
(-0 9.93893013e-12 -1.378281653e-11)
(-0 6.364419923e-12 -7.813055755e-12)
(-0 4.114821601e-12 -4.531852067e-12)
(-0 3.526403904e-12 -3.521765055e-12)
(-0 6.425670637e-12 -5.870062544e-12)
(-0 2.75636435e-12 -2.320132674e-12)
(-0 2.650307298e-12 -2.068199604e-12)
(-0 4.983043312e-13 -3.624075819e-13)
(-0 1.342230622e-12 -9.139416066e-13)
(-0 1.679031282e-13 -1.074669639e-13)
(-0 2.654141554e-14 -1.60250476e-14)
(-0 7.971602826e-14 -4.554557479e-14)
(-0 1.137047194e-13 -6.164947312e-14)
(-0 5.970445529e-14 -3.079733448e-14)
(-0 1.925033533e-14 -9.468967553e-15)
(-0 8.186608286e-15 -3.848043238e-15)
(-0 2.401138898e-15 -1.080590729e-15)
(-0 1.850873778e-16 -7.989093777e-17)
(-0 6.708446771e-17 -2.781816397e-17)
(-0 9.15738622e-17 -3.653590978e-17)
(-0 1.781319231e-17 -6.847648157e-18)
(-0 1.180447228e-17 -4.377869947e-18)
(-0 1.322126568e-17 -4.736140429e-18)
(-0 1.454569795e-18 -5.038936005e-19)
(-0 1.768817668e-18 -5.932073748e-19)
(-0 2.922218041e-19 -9.486443668e-20)
(-0 1.314153436e-20 -4.114020064e-21)
(-0 1.862663598e-21 -5.604939204e-22)
(-0 1.225248311e-21 -3.505715624e-22)
(-0 1.477003181e-22 -4.046811565e-23)
(-0 0 -0)
(-0 0 -0)
(-0 -0 -0)
(-0 -0 -0)
(-0 -0 -0)
(-0 -0 -0)
(-0 4.381051169e-18 -1.292178623e-16)
(-0 7.230621063e-15 -1.247690838e-13)
(-0 1.402562299e-14 -1.14921492e-12)
(-0 6.919938177e-13 -5.712211762e-11)
(-0 4.577686061e-09 -1.326436711e-08)
(-0 4.270471222e-06 -3.989556687e-06)
(-0 0.0003308972662 -0.6560160954)
(-0 -0.6594837991 -956.8759182)
(-0 2.216255956e-05 -868.7635535)
(-0 4.236794423e-07 -1.545412363e-06)
(-0 8.214113274e-12 -2.219534328e-11)
(-0 2.480188971e-11 -5.278727173e-11)
(-0 5.112797421e-12 -8.947372176e-12)
(-0 1.033417794e-11 -1.534860228e-11)
(-0 5.003796783e-12 -6.457658947e-12)
(-0 6.724263392e-12 -7.675798547e-12)
(-0 9.899546587e-13 -1.013367832e-12)
(-0 8.57107686e-12 -7.954165054e-12)
(-0 5.541457894e-12 -4.703643838e-12)
(-0 9.448436757e-12 -7.389345541e-12)
(-0 2.689749708e-12 -1.950191802e-12)
(-0 2.817441829e-12 -1.903859241e-12)
(-0 1.04894255e-12 -6.63640513e-13)
(-0 3.317318907e-13 -1.972914306e-13)
(-0 6.246181657e-13 -3.50437518e-13)
(-0 2.05294187e-13 -1.089968938e-13)
(-0 1.019872295e-13 -5.138657137e-14)
(-0 5.634959647e-14 -2.701256322e-14)
(-0 1.179918334e-14 -5.393863635e-15)
(-0 1.676553531e-14 -7.324053708e-15)
(-0 8.199725592e-16 -3.429693024e-16)
(-0 4.318636015e-16 -1.732576352e-16)
(-0 1.438713739e-16 -5.545214833e-17)
(-0 1.292392929e-16 -4.792833019e-17)
(-0 4.631662781e-17 -1.654993529e-17)
(-0 1.820080068e-17 -6.274469662e-18)
(-0 1.240828989e-17 -4.131948288e-18)
(-0 6.265030575e-18 -2.017584e-18)
(-0 2.316465365e-18 -7.220573e-19)
(-0 7.504106253e-20 -2.264553206e-20)
(-0 1.356269178e-20 -3.958752519e-21)
(-0 3.655987358e-21 -1.031460423e-21)
(-0 1.270981468e-21 -3.472392061e-22)
(-0 0 -0)
(-0 0 -0)
(-0 0 -0)
(-0 0 0)
(-0 -0 -0)
(-0 -0 0)
(-0 -0 -0)
(-0 4.963498778e-22 -2.665535131e-20)
(-0 1.814448801e-16 -7.990196247e-15)
(-0 -7.313546715e-15 -1.358507731e-13)
(-0 -1.062985698e-15 -8.767111116e-15)
(-0 7.069011252e-10 -9.525199913e-09)
(-0 3.007447809e-06 -4.036685814e-06)
(-0 0.0003391898944 -0.5246914875)
(-0 -0.3714351985 -1522.80729)
(-0 3.317250758e-05 -1382.066586)
(-0 1.696205756e-07 -5.806533574e-07)
(-0 2.581891135e-11 -6.461169799e-11)
(-0 3.011367647e-11 -5.911041681e-11)
(-0 2.550081434e-11 -4.111510619e-11)
(-0 6.386765971e-12 -8.739090754e-12)
(-0 2.442108381e-11 -2.904405512e-11)
(-0 2.108856596e-11 -2.219269921e-11)
(-0 9.498536324e-12 -8.967314469e-12)
(-0 4.950749925e-12 -4.23876789e-12)
(-0 9.51475791e-12 -7.453386e-12)
(-0 5.254427685e-12 -3.793439853e-12)
(-0 9.94853986e-12 -6.66016443e-12)
(-0 4.280057339e-12 -2.670992038e-12)
(-0 1.713724115e-12 -1.001463922e-12)
(-0 2.503751027e-12 -1.375576645e-12)
(-0 4.48291815e-13 -2.323700566e-13)
(-0 3.164469851e-13 -1.552406192e-13)
(-0 9.166160517e-14 -4.267720203e-14)
(-0 4.637403651e-14 -2.054411243e-14)
(-0 5.019776074e-14 -2.120795106e-14)
(-0 1.236541051e-14 -4.992688759e-15)
(-0 1.215260777e-15 -4.698291499e-16)
(-0 4.069108192e-16 -1.508967467e-16)
(-0 2.010103667e-16 -7.161690477e-17)
(-0 5.805521811e-17 -1.990253813e-17)
(-0 5.087790618e-17 -1.680633082e-17)
(-0 1.025815512e-17 -3.269291226e-18)
(-0 1.824027388e-18 -5.615426086e-19)
(-0 1.228643205e-18 -3.657915738e-19)
(-0 7.967514486e-20 -2.296221417e-20)
(-0 5.714587116e-21 -1.595113202e-21)
(-0 2.494739344e-21 -6.747458039e-22)
(-0 7.048877355e-22 -1.848927631e-22)
(-0 6.837644507e-22 -1.747644085e-22)
(-0 0 -0)
(-0 0 -0)
(-0 0 -0)
(-0 0 -0)
(-0 -0 0)
(-0 -0 0)
(-0 -0 0)
(-0 3.157723158e-29 -7.617578552e-27)
(-0 -2.110557869e-17 -1.418941151e-15)
(-0 -8.521448794e-16 -8.78279692e-15)
(-0 -3.610057839e-16 -1.666650395e-15)
(-0 -1.915931842e-10 -9.170495513e-10)
(-0 1.062198994e-06 -3.069941325e-06)
(-0 0.0003211333403 -0.4266987386)
(-0 -0.3508076958 -2375.879823)
(-0 4.841962976e-05 -2152.942091)
(-0 2.798011602e-07 -8.689893049e-07)
(-0 4.603411882e-11 -1.04282241e-10)
(-0 3.674614528e-11 -6.543106585e-11)
(-0 2.034455529e-11 -2.983082142e-11)
(-0 3.419206861e-11 -4.263818813e-11)
(-0 3.925824345e-11 -4.26214069e-11)
(-0 1.491854741e-11 -1.434987684e-11)
(-0 2.526074165e-11 -2.181928667e-11)
(-0 9.38997842e-12 -7.361362406e-12)
(-0 2.337193524e-11 -1.677413316e-11)
(-0 1.588320821e-11 -1.051103039e-11)
(-0 1.378594552e-11 -8.463091156e-12)
(-0 7.518168556e-12 -4.303649817e-12)
(-0 2.752955439e-12 -1.476063917e-12)
(-0 1.604097438e-13 -8.087717041e-14)
(-0 5.851819248e-13 -2.784109083e-13)
(-0 2.896004464e-13 -1.304192705e-13)
(-0 7.264551326e-14 -3.105329976e-14)
(-0 2.278102921e-14 -9.266607549e-15)
(-0 1.013087919e-14 -3.930379969e-15)
(-0 3.565970435e-16 -1.322237924e-16)
(-0 2.883765357e-16 -1.0239174e-16)
(-0 2.516175535e-16 -8.570006894e-17)
(-0 2.409212291e-16 -7.884131339e-17)
(-0 8.805157127e-17 -2.772716343e-17)
(-0 7.358271582e-17 -2.232741836e-17)
(-0 2.242127408e-17 -6.564167048e-18)
(-0 2.804658731e-17 -7.931948982e-18)
(-0 1.323238147e-17 -3.619142023e-18)
(-0 3.925704611e-18 -1.03949293e-18)
(-0 4.903432866e-20 -1.258106478e-20)
(-0 3.051188495e-20 -7.594526685e-21)
(-0 7.794380646e-21 -1.883034673e-21)
(-0 2.660975455e-21 -6.234402592e-22)
(-0 0 -0)
(-0 0 -0)
(-0 0 -0)
(-0 0 -0)
(-0 -0 -0)
(-0 -0 0)
(-0 -0 0)
(-0 -1.289541471e-37 -1.341186534e-35)
(-0 -2.196967124e-17 -3.872118573e-16)
(-0 -2.58412559e-16 -1.606823941e-15)
(-0 -1.669661558e-16 -5.076126841e-16)
(-0 -7.711068543e-14 -1.733307038e-13)
(-0 -1.572305226e-07 -1.836599194e-06)
(-0 0.0002639958974 -0.373409888)
(-0 -0.2725059503 -3618.295154)
(-0 7.634801661e-05 -3272.641963)
(-0 8.086601144e-07 -2.211521972e-06)
(-0 6.143177137e-11 -1.23509746e-10)
(-0 4.384752999e-11 -6.977592206e-11)
(-0 4.872661645e-11 -6.4183053e-11)
(-0 3.295043841e-11 -3.704923504e-11)
(-0 8.907052691e-12 -8.742267874e-12)
(-0 7.747855974e-11 -6.750410247e-11)
(-0 1.008031532e-11 -7.897915503e-12)
(-0 3.549198881e-11 -2.526574705e-11)
(-0 3.407229058e-11 -2.222335141e-11)
(-0 2.814338574e-11 -1.69363809e-11)
(-0 9.358126621e-12 -5.22677091e-12)
(-0 6.410027901e-12 -3.339696851e-12)
(-0 3.411633439e-12 -1.665431666e-12)
(-0 2.060427582e-12 -9.460654629e-13)
(-0 1.222038647e-12 -5.295889156e-13)
(-0 8.602153318e-13 -3.529250713e-13)
(-0 1.781592894e-13 -6.939081161e-14)
(-0 1.452837622e-13 -5.38531218e-14)
(-0 8.963187837e-14 -3.169130841e-14)
(-0 4.836411214e-14 -1.634492104e-14)
(-0 3.002074512e-15 -9.715975675e-16)
(-0 1.53560041e-15 -4.767671184e-16)
(-0 5.372861997e-16 -1.602863805e-16)
(-0 3.780122611e-16 -1.085195119e-16)
(-0 1.568909776e-16 -4.340230846e-17)
(-0 7.151199772e-17 -1.908832326e-17)
(-0 5.558889053e-17 -1.433427358e-17)
(-0 4.393557399e-18 -1.095687701e-18)
(-0 8.549362644e-18 -2.064104522e-18)
(-0 6.897519773e-19 -1.61401812e-19)
(-0 5.028335514e-20 -1.142205304e-20)
(-0 9.302727962e-21 -2.050838836e-21)
(-0 5.858104885e-21 -1.251019649e-21)
(-0 7.341073955e-22 -1.528280325e-22)
(-0 0 -0)
(-0 0 -0)
(-0 0 -0)
(-0 -0 0)
(-0 -0 0)
(-0 -0 0)
(-0 -9.766501199e-31 -4.142515651e-29)
(-0 -3.354561824e-18 -3.320437112e-17)
(-0 -1.107513525e-16 -4.662665823e-16)
(-0 -3.566225501e-14 -8.427389419e-14)
(-0 -4.934483725e-13 -7.810887193e-13)
(-0 -2.768146268e-07 -5.035253479e-07)
(-0 0.0001474137823 -0.3567032923)
(-0 -0.1687998362 -5330.818917)
(-0 0.0001191504432 -4833.380098)
(-0 2.330827588e-06 -5.474642071e-06)
(-0 1.005112182e-10 -1.762152055e-10)
(-0 7.61698498e-11 -1.068023841e-10)
(-0 6.035920003e-11 -7.055021776e-11)
(-0 9.98834385e-11 -1.001392892e-10)
(-0 5.308104338e-11 -4.66094007e-11)
(-0 2.488801126e-11 -1.944514424e-11)
(-0 1.20572023e-10 -8.485989531e-11)
(-0 5.188775509e-11 -3.322272385e-11)
(-0 5.441961226e-11 -3.195557953e-11)
(-0 3.620398306e-11 -1.962909396e-11)
(-0 5.964380687e-12 -3.002995596e-12)
(-0 1.787808974e-11 -8.400502525e-12)
(-0 8.666413664e-13 -3.816747245e-13)
(-0 1.74094586e-12 -7.21374773e-13)
(-0 2.901448651e-12 -1.134958088e-12)
(-0 6.692535642e-13 -2.478895183e-13)
(-0 4.892003566e-13 -1.720439687e-13)
(-0 1.356837404e-13 -4.541891039e-14)
(-0 1.149114717e-13 -3.669468543e-14)
(-0 4.53337347e-14 -1.383831047e-14)
(-0 1.895960781e-14 -5.542814011e-15)
(-0 8.752768295e-16 -2.454928204e-16)
(-0 3.98674072e-16 -1.074483098e-16)
(-0 7.054681622e-16 -1.829751812e-16)
(-0 1.947493884e-16 -4.867695877e-17)
(-0 1.121399599e-16 -2.704570778e-17)
(-0 8.874558676e-17 -2.067751628e-17)
(-0 3.609578344e-18 -8.134021617e-19)
(-0 1.014637576e-17 -2.213589131e-18)
(-0 2.603347188e-18 -5.504685048e-19)
(-0 9.110409192e-20 -1.868911507e-20)
(-0 1.180380199e-20 -2.348903503e-21)
(-0 7.063367593e-21 -1.367270884e-21)
(-0 1.515806639e-21 -2.860585049e-22)
(-0 0 -0)
(-0 0 -0)
(-0 0 -0)
(-0 0 -0)
(-0 -0 0)
(-0 -0 0)
(-0 -1.453984689e-30 -3.706051312e-29)
(-0 -7.593018741e-20 -5.004944812e-19)
(-0 -2.253813151e-17 -6.78046779e-17)
(-0 -3.305258634e-14 -5.931965743e-14)
(-0 -7.331060899e-14 -8.918244868e-14)
(-0 -1.14203276e-10 -1.188273181e-10)
(-0 -4.208783397e-05 -0.3704012706)
(-0 -0.04933482423 -7525.681592)
(-0 0.0001479588096 -6895.384381)
(-0 7.777532968e-06 -1.538309222e-05)
(-0 1.011960713e-10 -1.521731682e-10)
(-0 2.097440033e-10 -2.554677778e-10)
(-0 1.72568006e-10 -1.766658187e-10)
(-0 1.717380253e-10 -1.516412533e-10)
(-0 1.313251656e-10 -1.019448697e-10)
(-0 3.030824964e-10 -2.099016287e-10)
(-0 4.589640348e-11 -2.868750983e-11)
(-0 7.370382065e-11 -4.196831641e-11)
(-0 2.471003824e-11 -1.291739939e-11)
(-0 1.099164306e-11 -5.309542644e-12)
(-0 1.867592701e-11 -8.382691643e-12)
(-0 6.569069837e-12 -2.752983113e-12)
(-0 5.958675204e-12 -2.341421784e-12)
(-0 1.684772634e-12 -6.230470898e-13)
(-0 3.443830633e-12 -1.2025793e-12)
(-0 1.683753588e-12 -5.56848398e-13)
(-0 4.411686851e-13 -1.385534579e-13)
(-0 1.489385717e-13 -4.452801879e-14)
(-0 1.937638052e-13 -5.526849791e-14)
(-0 7.623931716e-14 -2.078960556e-14)
(-0 4.664286398e-15 -1.21822147e-15)
(-0 9.498884916e-15 -2.380321133e-15)
(-0 2.309707708e-15 -5.56203386e-16)
(-0 9.062168869e-16 -2.100216292e-16)
(-0 1.565372108e-16 -3.49624243e-17)
(-0 3.403150104e-16 -7.334537525e-17)
(-0 7.04883088e-17 -1.467697863e-17)
(-0 1.236544194e-17 -2.490236056e-18)
(-0 9.970799598e-18 -1.944105604e-18)
(-0 4.589133748e-18 -8.671161869e-19)
(-0 2.577757791e-19 -4.7230998e-20)
(-0 3.371977918e-20 -5.994226151e-21)
(-0 8.323023952e-21 -1.437790274e-21)
(-0 2.475304016e-21 -4.148458844e-22)
(-0 1.227243355e-22 -2.019080787e-23)
(-0 0 -0)
(-0 0 -0)
(-0 0 0)
(-0 -0 -0)
(-0 -0 -0)
(-0 -5.376599266e-31 -9.28939255e-30)
(-0 -1.242282318e-22 -5.829571009e-22)
(-0 -5.11968943e-18 -1.149266506e-17)
(-0 -1.634084512e-14 -2.263820959e-14)
(-0 -7.661458259e-14 -7.741152052e-14)
(-0 -1.419988073e-11 -1.11637584e-11)
(-0 -0.0003358851723 -0.423233249)
(-0 0.3651060469 -10121.57889)
(-0 -2.722849685e-05 -9428.670653)
(-0 4.214487812e-05 -7.064577671e-05)
(-0 5.627860235e-11 -7.139731123e-11)