/*--------------------------------*- C++ -*----------------------------------*\
  =========                 |
  \\      /  F ield         | OpenFOAM: The Open Source CFD Toolbox
   \\    /   O peration     | Website:  https://openfoam.org
    \\  /    A nd           | Version:  6
     \\/     M anipulation  |
\*---------------------------------------------------------------------------*/
FoamFile
{
    version     2.0;
    format      ascii;
    class       volScalarField;
    location    "0.17";
    object      Num_divU;
}
// * * * * * * * * * * * * * * * * * * * * * * * * * * * * * * * * * * * * * //

dimensions      [0 0 -1 0 0 0 0];

internalField   nonuniform List<scalar> 
2500
(
2.390404916e-08
2.053659689e-08
7.202491366e-08
1.246689856e-07
1.772271571e-07
2.144163013e-07
2.534366511e-07
3.151954818e-07
2.393621584e-07
9.925613077e-23
-1.900211645e-16
-4.272486599e-16
-6.501834334e-16
-8.671878288e-16
-1.081566118e-15
-1.293834396e-15
-1.503803619e-15
-1.711144043e-15
-1.915506607e-15
-2.116548369e-15
-2.313937339e-15
-2.507353782e-15
-2.696491436e-15
-2.88105889e-15
-3.060779884e-15
-3.235393699e-15
-3.404655361e-15
-3.568336451e-15
-3.726224974e-15
-3.878125713e-15
-4.023859541e-15
-4.163263308e-15
-4.296189283e-15
-4.422504758e-15
-4.542091391e-15
-4.654844565e-15
-4.760672433e-15
-4.859495305e-15
-4.951244442e-15
-5.035861428e-15
-5.113297323e-15
-5.183511628e-15
-5.246471753e-15
-5.302152393e-15
-5.350534998e-15
-5.391607674e-15
-5.425365073e-15
-5.451807721e-15
-5.470936318e-15
-5.482720409e-15
4.196029902e-08
1.129840484e-07
2.31852384e-07
3.230575481e-07
3.684691204e-07
3.637627729e-07
2.876010945e-07
1.943324565e-08
1.058998531e-07
-3.793774981e-16
-7.949919617e-16
-1.20453824e-15
-1.594567994e-15
-1.977825094e-15
-2.356895928e-15
-2.731730678e-15
-3.101788606e-15
-3.46645686e-15
-3.825126022e-15
-4.177204848e-15
-4.522125258e-15
-4.859343604e-15
-5.188341846e-15
-5.50862867e-15
-5.819740739e-15
-6.121243719e-15
-6.412732381e-15
-6.693830864e-15
-6.964192661e-15
-7.223499997e-15
-7.471463557e-15
-7.70782153e-15
-7.932338824e-15
-8.144805747e-15
-8.34503701e-15
-8.532869918e-15
-8.70816318e-15
-8.87079522e-15
-9.020662711e-15
-9.157679032e-15
-9.281772934e-15
-9.392887461e-15
-9.490979079e-15
-9.576017902e-15
-9.647989077e-15
-9.706898511e-15
-9.752788469e-15
-9.785785989e-15
-9.806263158e-15
-4.329499894e-15
4.427107402e-08
1.114585435e-07
1.692804904e-07
2.18769052e-07
2.746663794e-07
3.536407806e-07
4.321150793e-07
2.720236408e-07
7.2378498e-08
-3.107261663e-16
-6.622721994e-16
-1.016196512e-15
-1.355149173e-15
-1.689105473e-15
-2.019706528e-15
-2.346725821e-15
-2.669650169e-15
-2.987936667e-15
-3.301050525e-15
-3.608474125e-15
-3.909709475e-15
-4.204279794e-15
-4.491730746e-15
-4.771631512e-15
-5.043575873e-15
-5.307182618e-15
-5.562095901e-15
-5.807985424e-15
-6.044546441e-15
-6.271499608e-15
-6.488590484e-15
-6.695588795e-15
-6.89228765e-15
-7.078502444e-15
-7.254069798e-15
-7.418846346e-15
-7.572707332e-15
-7.715545336e-15
-7.847268784e-15
-7.96780078e-15
-8.077077619e-15
-8.175047645e-15
-8.261670314e-15
-8.336915063e-15
-8.400760642e-15
-8.45319354e-15
-8.49420198e-15
-8.523749037e-15
-8.541649161e-15
-4.219146001e-15
3.56832849e-08
8.607384109e-08
1.215374636e-07
1.387766428e-07
1.332068681e-07
1.444527447e-07
2.031455633e-07
1.298035706e-07
2.576278202e-08
-3.05870244e-16
-6.504562611e-16
-9.986373854e-16
-1.332625821e-15
-1.661911943e-15
-1.987954835e-15
-2.310485349e-15
-2.628988765e-15
-2.942928693e-15
-3.251776997e-15
-3.555022029e-15
-3.852171393e-15
-4.142754118e-15
-4.426321295e-15
-4.702447366e-15
-4.970730794e-15
-5.230794814e-15
-5.482287866e-15
-5.724883647e-15
-5.958281306e-15
-6.182204935e-15
-6.396403427e-15
-6.600649446e-15
-6.794738811e-15
-6.978489376e-15
-7.151739869e-15
-7.314348708e-15
-7.466192751e-15
-7.607165848e-15
-7.737177471e-15
-7.856151223e-15
-7.964023614e-15
-8.060742496e-15
-8.146265833e-15
-8.220559994e-15
-8.283597919e-15
-8.335355298e-15
-8.375803526e-15
-8.404894146e-15
-8.422535782e-15
-4.210920389e-15
2.536576921e-08
5.439778671e-08
6.548660237e-08
8.01624408e-08
6.703030521e-08
4.481659963e-08
5.411744142e-08
2.2802078e-08
-3.240201502e-08
-3.056917045e-16
-6.497669485e-16
-9.975432179e-16
-1.331218234e-15
-1.660230633e-15
-1.986015667e-15
-2.308295848e-15
-2.626556516e-15
-2.940263445e-15
-3.24888898e-15
-3.551920904e-15
-3.848865852e-15
-4.139251672e-15
-4.422628744e-15
-4.698570984e-15
-4.966676324e-15
-5.226567639e-15
-5.477893136e-15
-5.720326361e-15
-5.953566377e-15
-6.177337441e-15
-6.391388436e-15
-6.595492169e-15
-6.789444667e-15
-6.973063875e-15
-7.146188702e-15
-7.308677776e-15
-7.460407992e-15
-7.601273134e-15
-7.731182627e-15
-7.850059784e-15
-7.957840453e-15
-8.054471576e-15
-8.139909475e-15
-8.214118112e-15
-8.277066733e-15
-8.32872688e-15
-8.369067756e-15
-8.398051045e-15
-8.415631307e-15
-4.212723731e-15
6.63709044e-09
1.351723412e-08
-2.117214732e-08
-3.448975519e-08
-5.204602032e-08
-7.13604119e-08
-9.176662444e-08
-8.250448916e-08
-7.578081285e-08
-3.058530912e-16
-6.500698923e-16
-9.979956835e-16
-1.331826461e-15
-1.66100123e-15
-1.986956286e-15
-2.309408772e-15
-2.627844594e-15
-2.941731436e-15
-3.250542301e-15
-3.553763756e-15
-3.850900362e-15
-4.141477656e-15
-4.425044158e-15
-4.701172058e-15
-4.969458192e-15
-5.229524428e-15
-5.481018012e-15
-5.723611964e-15
-5.957004816e-15
-6.18092032e-15
-6.395107146e-15
-6.59933789e-15
-6.793408448e-15
-6.97713666e-15
-7.150361463e-15
-7.312941354e-15
-7.46475317e-15
-7.605690694e-15
-7.735662938e-15
-7.854592978e-15
-7.962416136e-15
-8.059078557e-15
-8.144535369e-15
-8.218749127e-15
-8.281687689e-15
-8.33332179e-15
-8.3736228e-15
-8.402561413e-15
-8.420109964e-15
-4.215856441e-15
-1.90969357e-08
-3.23207038e-08
-9.260158285e-08
-1.491573919e-07
-1.656721447e-07
-1.643300901e-07
-1.987061999e-07
-1.815986501e-07
-7.581169469e-08
-3.060428902e-16
-6.504638946e-16
-9.985984121e-16
-1.33264103e-15
-1.662033657e-15
-1.988220639e-15
-2.310910643e-15
-2.629587042e-15
-2.943719009e-15
-3.252781126e-15
-3.556258896e-15
-3.853654558e-15
-4.14449107e-15
-4.428314285e-15
-4.704694168e-15
-4.973225812e-15
-5.233529718e-15
-5.485252229e-15
-5.728065397e-15
-5.961667125e-15
-6.185780654e-15
-6.40015429e-15
-6.604560362e-15
-6.79879455e-15
-6.98267458e-15
-7.15603937e-15
-7.318747275e-15
-7.470675181e-15
-7.611716585e-15
-7.741780517e-15
-7.860789625e-15
-7.968678943e-15
-8.065393997e-15
-8.150889466e-15
-8.225127254e-15
-8.288074923e-15
-8.339703992e-15
-8.379988599e-15
-8.408905133e-15
-8.426433899e-15
-4.21948327e-15
-4.015692466e-08
-8.204868832e-08
-1.397076806e-07
-2.196162688e-07
-2.326149526e-07
-2.120793667e-07
-1.716845529e-07
-1.923841532e-07
-8.160059201e-08
-3.062347013e-16
-6.508679207e-16
-9.992146894e-16
-1.333478031e-15
-1.663099496e-15
-1.989540932e-15
-2.312500837e-15
-2.631454031e-15
-2.945867017e-15
-3.255216276e-15
-3.558986927e-15
-3.856678936e-15
-4.147812529e-15
-4.431930517e-15
-4.708600326e-15
-4.977414645e-15
-5.237992366e-15
-5.489978455e-15
-5.733044128e-15
-5.966886454e-15
-6.191228236e-15
-6.405817262e-15
-6.610425606e-15
-6.804848762e-15
-6.988904402e-15
-7.162431263e-15
-7.325287722e-15
-7.477350576e-15
-7.618513351e-15
-7.748684847e-15
-7.867787628e-15
-7.975756493e-15
-8.072536812e-15
-8.158082894e-15
-8.232356683e-15
-8.295326096e-15
-8.346963739e-15
-8.38724616e-15
-8.41615334e-15
-8.433669603e-15
-4.223507291e-15
-4.156999902e-08
-1.189293516e-07
-1.590589736e-07
-2.219926668e-07
-2.165367673e-07
-1.487528086e-07
-4.686400951e-08
1.108652712e-07
4.856336061e-09
-3.064181999e-16
-6.512557094e-16
-9.998183197e-16
-1.334310094e-15
-1.664162509e-15
-1.990866137e-15
-2.31411933e-15
-2.633383119e-15
-2.948114295e-15
-3.257787499e-15
-3.561887564e-15
-3.859912427e-15
-4.151379382e-15
-4.435828187e-15
-4.712823271e-15
-4.981954859e-15
-5.242839783e-15
-5.495121509e-15
-5.738470133e-15
-5.972582012e-15
-6.197179325e-15
-6.412009483e-15
-6.616844366e-15
-6.811479235e-15
-6.995731695e-15
-7.169440438e-15
-7.332463852e-15
-7.484678689e-15
-7.62597845e-15
-7.756271916e-15
-7.875481691e-15
-7.983542404e-15
-8.080399413e-15
-8.166007109e-15
-8.240327699e-15
-8.30332962e-15
-8.354986659e-15
-8.395277011e-15
-8.424183142e-15
-8.441691675e-15
-4.227900275e-15
-3.493272189e-08
-1.204060184e-07
-1.432411376e-07
-1.184245991e-07
-9.944622669e-08
-2.375148029e-08
-1.544272676e-08
1.533812978e-07
-3.400217259e-09
-3.0659122e-16
-6.516267105e-16
-1.000403116e-15
-1.335128649e-15
-1.665218846e-15
-1.992181601e-15
-2.315737873e-15
-2.635338431e-15
-2.950424477e-15
-3.260461482e-15
-3.564930524e-15
-3.863327201e-15
-4.155165558e-15
-4.439982205e-15
-4.717338326e-15
-4.986821591e-15
-5.248046606e-15
-5.500655294e-15
-5.744316542e-15
-5.978725833e-15
-6.203604975e-15
-6.418700945e-15
-6.623785437e-15
-6.818653668e-15
-7.003123151e-15
-7.177032568e-15
-7.340240387e-15
-7.492623322e-15
-7.634074999e-15
-7.764504293e-15
-7.883833678e-15
-7.991998048e-15
-8.088942744e-15
-8.17462246e-15
-8.248999646e-15
-8.31204344e-15
-8.363728595e-15
-8.404034686e-15
-8.432945575e-15
-8.450449523e-15
-4.232639362e-15
-3.166815021e-08
-7.549322452e-08
-7.855897416e-08
6.008502106e-09
1.632084332e-07
3.045395936e-07
1.673553653e-07
1.325112092e-07
-5.126560102e-08
-3.067554626e-16
-6.519634654e-16
-1.000938265e-15
-1.335886408e-15
-1.666239527e-15
-1.993470277e-15
-2.317336136e-15
-2.637292022e-15
-2.952765409e-15
-3.263206329e-15
-3.568086661e-15
-3.866896751e-15
-4.159146848e-15
-4.444369817e-15
-4.722123528e-15
-4.991992988e-15
-5.253590705e-15
-5.506557015e-15
-5.750559618e-15
-5.985293364e-15
-6.210479436e-15
-6.425864795e-15
-6.631220837e-15
-6.826342897e-15
-7.011048483e-15
-7.185176369e-15
-7.34858508e-15
-7.501151468e-15
-7.642769221e-15
-7.773347299e-15
-7.892808466e-15
-8.001087573e-15
-8.098130289e-15
-8.18389153e-15
-8.258334211e-15
-8.321428065e-15
-8.37314861e-15
-8.413476372e-15
-8.442396378e-15
-8.45989786e-15
-4.237701135e-15
-3.313701618e-08
-8.016184339e-09
2.201961684e-08
1.14627909e-07
3.408259851e-07
4.398475924e-07
4.854631106e-09
4.657302576e-09
-1.359239992e-07
-3.069238742e-16
-6.522334958e-16
-1.001377703e-15
-1.336503609e-15
-1.667142876e-15
-1.994676036e-15
-2.318876024e-15
-2.639211792e-15
-2.955105332e-15
-3.265990974e-15
-3.571326774e-15
-3.87059449e-15
-4.163298775e-15
-4.448967938e-15
-4.727156521e-15
-4.997446799e-15
-5.25944935e-15
-5.512803119e-15
-5.757174852e-15
-5.992258727e-15
-6.217775717e-15
-6.433472528e-15
-6.639120863e-15
-6.834515889e-15
-7.019475443e-15
-7.193838343e-15
-7.357463306e-15
-7.510227411e-15
-7.652024422e-15
-7.78276354e-15
-7.902367653e-15
-8.010771888e-15
-8.107922137e-15
-8.19377365e-15
-8.268289759e-15
-8.331440736e-15
-8.383202718e-15
-8.423557016e-15
-8.452489422e-15
-8.469989751e-15
-4.243060995e-15
-3.83229561e-08
6.941595154e-08
1.362890465e-07
2.225727732e-07
3.677048974e-07
1.065430687e-07
-4.036373015e-07
-2.624201082e-07
-1.083984002e-07
-3.070716435e-16
-6.52423644e-16
-1.00168826e-15
-1.336932001e-15
-1.667836922e-15
-1.995707589e-15
-2.320287767e-15
-2.641047723e-15
-2.957405548e-15
-3.268782358e-15
-3.574621734e-15
-3.874394392e-15
-4.167597404e-15
-4.453754163e-15
-4.73241539e-15
-5.003160864e-15
-5.26559964e-15
-5.519369541e-15
-5.764136703e-15
-5.999594946e-15
-6.225465131e-15
-6.441494091e-15
-6.647453667e-15
-6.843139387e-15
-7.028369244e-15
-7.202982412e-15
-7.366837801e-15
-7.51981262e-15
-7.661800995e-15
-7.792712334e-15
-7.912469708e-15
-8.021008531e-15
-8.118274955e-15
-8.204224591e-15
-8.278821153e-15
-8.342035349e-15
-8.393843869e-15
-8.434228612e-15
-8.463175876e-15
-8.480676052e-15
-4.248693126e-15
-4.111937802e-08
9.06231449e-08
1.967577415e-07
3.626014687e-07
2.087986018e-07
-5.791970118e-07
-5.058452085e-07
-1.090470363e-07
1.58667975e-08
-3.071350852e-16
-6.524876113e-16
-1.001792599e-15
-1.33714681e-15
-1.668268336e-15
-1.996483843e-15
-2.321491473e-15
-2.642736028e-15
-2.959618585e-15
-3.27154443e-15
-3.577942523e-15
-3.878271719e-15
-4.172020815e-15
-4.458707575e-15
-4.737879364e-15
-5.009113884e-15
-5.272019024e-15
-5.526232147e-15
-5.771419231e-15
-6.007274095e-15
-6.233517843e-15
-6.449897678e-15
-6.656185751e-15
-6.852178038e-15
-7.037693003e-15
-7.212570059e-15
-7.376668502e-15
-7.529865904e-15
-7.672056556e-15
-7.803150142e-15
-7.923070021e-15
-8.03175189e-15
-8.129142214e-15
-8.21519691e-15
-8.28988003e-15
-8.353162704e-15
-8.40502208e-15
-8.445440451e-15
-8.474404573e-15
-8.49190517e-15
-4.254570476e-15
-2.812317578e-08
5.719686251e-08
1.155580507e-07
3.540350944e-07
-1.176055525e-07
-8.274020672e-07
-9.380772247e-07
5.830428502e-07
1.462529554e-07
-3.070828724e-16
-6.523316152e-16
-1.001525895e-15
-1.337024781e-15
-1.668357362e-15
-1.99692862e-15
-2.322412713e-15
-2.644212764e-15
-2.961695312e-15
-3.274241219e-15
-3.581262228e-15
-3.882204892e-15
-4.176549916e-15
-4.46381e-15
-4.743529904e-15
-5.015286009e-15
-5.278685871e-15
-5.533367157e-15
-5.77899623e-15
-6.01526768e-15
-6.241903059e-15
-6.458650189e-15
-6.665281908e-15
-6.861594799e-15
-7.047407685e-15
-7.222560651e-15
-7.386913283e-15
-7.540343527e-15
-7.682746019e-15
-7.81403069e-15
-7.934121254e-15
-8.042953602e-15
-8.140474596e-15
-8.226640346e-15
-8.301415301e-15
-8.364770927e-15
-8.416684701e-15
-8.457139298e-15
-8.486121792e-15
-8.503623257e-15
-4.260665057e-15
-1.0543336e-08
3.50566324e-08
-3.65576263e-08
5.089402197e-08
-5.051439432e-07
1.017466332e-07
-1.36532557e-06
4.379189748e-07
1.45657933e-08
-3.069171103e-16
-6.518624322e-16
-1.000751909e-15
-1.336353562e-15
-1.667938961e-15
-1.996927677e-15
-2.322969273e-15
-2.645417147e-15
-2.96359194e-15
-3.276842497e-15
-3.584559938e-15
-3.88617821e-15
-4.181170899e-15
-4.469047545e-15
-4.749351583e-15
-5.021659599e-15
-5.285579961e-15
-5.540751468e-15
-5.786841862e-15
-6.023546834e-15
-6.250589133e-15
-6.467717527e-15
-6.67470561e-15
-6.871350785e-15
-7.05747258e-15
-7.232911537e-15
-7.397527796e-15
-7.551199608e-15
-7.693822064e-15
-7.825305401e-15
-7.945573555e-15
-8.054562807e-15
-8.15222015e-15
-8.238502116e-15
-8.313373357e-15
-8.376805672e-15
-8.42877683e-15
-8.469269772e-15
-8.498271845e-15
-8.515774282e-15
-4.266947756e-15
-3.268884513e-08
2.391454976e-08
-6.688806461e-08
-3.217267294e-07
-8.414795094e-07
1.151364505e-06
-6.29289783e-07
-8.522680814e-08
-2.892363207e-07
-3.065839153e-16
-6.509154011e-16
-9.993299171e-16
-1.334901346e-15
-1.666790209e-15
-1.996320381e-15
-2.323059707e-15
-2.646288846e-15
-2.965274474e-15
-3.279329881e-15
-3.58782576e-15
-3.890185391e-15
-4.185877784e-15
-4.474412091e-15
-4.755333284e-15
-5.028219896e-15
-5.292682773e-15
-5.548362892e-15
-5.794930308e-15
-6.0320825e-15
-6.259543882e-15
-6.477064476e-15
-6.684419101e-15
-6.881405903e-15
-7.067845226e-15
-7.243578306e-15
-7.408465736e-15
-7.562386313e-15
-7.705235394e-15
-7.836923552e-15
-7.957375063e-15
-8.066526418e-15
-8.164324892e-15
-8.25072727e-15
-8.325698478e-15
-8.389210503e-15
-8.441241423e-15
-8.481774351e-15
-8.510796875e-15
-8.528300416e-15
-4.273388744e-15
-8.891989385e-08
-1.243143089e-07
-7.996929413e-09
-3.804201225e-07
-8.471080598e-07
4.978741745e-07
8.994605736e-08
-1.034453692e-07
-3.266814379e-07
-3.059896158e-16
-6.492029048e-16
-9.969267781e-16
-1.332368066e-15
-1.664657794e-15
-1.994928673e-15
-2.322579212e-15
-2.646777733e-15
-2.966725543e-15
-3.281703176e-15
-3.591066117e-15
-3.894233149e-15
-4.190674581e-15
-4.479903292e-15
-4.761469155e-15
-5.034955718e-15
-5.299977878e-15
-5.556180372e-15
-5.803236204e-15
-6.040845413e-15
-6.268734438e-15
-6.486655069e-15
-6.694383342e-15
-6.891718507e-15
-7.07848175e-15
-7.25451497e-15
-7.419679294e-15
-7.573853984e-15
-7.716934785e-15
-7.84883256e-15
-7.969471902e-15
-8.078789472e-15
-8.176732848e-15
-8.263258968e-15
-8.338333022e-15
-8.401927186e-15
-8.45401967e-15
-8.494593865e-15
-8.523637494e-15
-8.541142122e-15
-4.279957427e-15
-3.307307052e-08
-3.73457838e-07
-1.53614982e-07
-1.010759793e-07
-5.186321341e-08
-9.043232008e-07
1.571639947e-07
-4.233363321e-08
-6.36744609e-08
-3.050100601e-16
-6.462531792e-16
-9.92882375e-16
-1.32825573e-15
-1.661224871e-15
-1.99257712e-15
-2.321451397e-15
-2.64686778e-15
-2.967961173e-15
-3.283990244e-15
-3.594309463e-15
-3.898344924e-15
-4.195576944e-15
-4.485528593e-15
-4.767758952e-15
-5.041859383e-15
-5.307451121e-15
-5.564183816e-15
-5.811734247e-15
-6.049805825e-15
-6.278127285e-15
-6.496452296e-15
-6.704558356e-15
-6.902245897e-15
-7.089336946e-15
-7.265674048e-15
-7.43111905e-15
-7.585551507e-15
-7.728867535e-15
-7.860978342e-15
-7.981808676e-15
-8.091295481e-15
-8.189386499e-15
-8.276038852e-15
-8.351217848e-15
-8.414895891e-15
-8.467051324e-15
-8.507667688e-15
-8.536732809e-15
-8.554238354e-15
-4.286622699e-15
2.152318439e-07
-3.62110224e-07
-6.09142567e-07
-1.801698234e-07
8.972805448e-07
-1.000002812e-06
3.989686022e-07
-3.481481878e-07
3.551144247e-09
-3.034203837e-16
-6.412217675e-16
-9.861544533e-16
-1.3218249e-15
-1.656105126e-15
-1.989122426e-15
-2.319665567e-15
-2.646609007e-15
-2.969050289e-15
-3.286258367e-15
-3.597612064e-15
-3.902562822e-15
-4.200613003e-15
-4.491303466e-15
-4.774207221e-15
-5.048926257e-15
-5.315089779e-15
-5.572353678e-15
-5.820399472e-15
-6.058933754e-15
-6.287688127e-15
-6.506418157e-15
-6.71490296e-15
-6.912944e-15
-7.10036425e-15
-7.277006939e-15
-7.442734286e-15
-7.597426389e-15
-7.740979614e-15
-7.873305387e-15
-7.994328694e-15
-8.103986601e-15
-8.202227023e-15
-8.289007211e-15
-8.364292576e-15
-8.428055661e-15
-8.480274943e-15
-8.520933971e-15
-8.550020829e-15
-8.567527095e-15
-4.293352986e-15
4.002401626e-07
1.025941971e-07
-6.56238009e-07
-6.772970897e-07
7.014069158e-07
-2.26812924e-09
1.195809792e-06
-3.671685627e-07
-3.982604914e-08
-3.007795458e-16
-6.321489048e-16
-9.749633929e-16
-1.312102689e-15
-1.648953807e-15
-1.984554843e-15
-2.317346978e-15
-2.646157445e-15
-2.970136247e-15
-3.288623583e-15
-3.601060779e-15
-3.906947747e-15
-4.205822057e-15
-4.497249814e-15
-4.78082179e-15
-5.056152843e-15
-5.322881596e-15
-5.580670404e-15
-5.829205874e-15
-6.068198184e-15
-6.297381559e-15
-6.516513624e-15
-6.72537482e-15
-6.923767741e-15
-7.111516129e-15
-7.288463712e-15
-7.454473265e-15
-7.609425101e-15
-7.753215873e-15
-7.885757222e-15
-8.006974175e-15
-8.116803973e-15
-8.215194617e-15
-8.302103392e-15
-8.377495863e-15
-8.441344563e-15
-8.493628103e-15
-8.534330105e-15
-8.563438626e-15
-8.580945507e-15
-4.300116417e-15
1.397017065e-07
3.799105864e-07
1.446494758e-09
-6.984550931e-07
-5.748281195e-07
1.255751619e-07
1.100800517e-06
-2.90305102e-07
-3.242639869e-08
-2.963232489e-16
-6.14229325e-16
-9.56232544e-16
-1.298078849e-15
-1.639769785e-15
-1.979202071e-15
-2.314859599e-15
-2.645818638e-15
-2.971449934e-15
-3.291251121e-15
-3.604769883e-15
-3.911575403e-15
-4.211251055e-15
-4.50339278e-15
-4.787611541e-15
-5.063535656e-15
-5.330813144e-15
-5.589112964e-15
-5.838126271e-15
-6.077566755e-15
-6.307170992e-15
-6.526698333e-15
-6.735930445e-15
-6.934670781e-15
-7.122743732e-15
-7.299993521e-15
-7.466283123e-15
-7.621493123e-15
-7.76552031e-15
-7.898276418e-15
-8.019686533e-15
-8.129687968e-15
-8.228228697e-15
-8.315266062e-15
-8.390765648e-15
-8.454700067e-15
-8.507047835e-15
-8.547792733e-15
-8.576922836e-15
-8.594429972e-15
-4.306881064e-15
-4.271716928e-07
-9.097006387e-08
5.635886134e-07
1.666661401e-07
-1.102497558e-06
-1.844950531e-07
5.918983701e-07
-1.256088006e-07
-4.06360423e-09
-2.8864016e-16
-5.739942484e-16
-9.255647881e-16
-1.279769726e-15
-1.629581917e-15
-1.9740301e-15
-2.312905928e-15
-2.646064472e-15
-2.973300029e-15
-3.294341091e-15
-3.608867057e-15
-3.916525335e-15
-4.216946394e-15
-4.509755642e-15
-4.794582721e-15
-5.071068269e-15
-5.338868503e-15
-5.59765784e-15
-5.847131259e-15
-6.087005166e-15
-6.317018001e-15
-6.53693044e-15
-6.746524957e-15
-6.945605742e-15
-7.133997469e-15
-7.311544551e-15
-7.478110322e-15
-7.633575244e-15
-7.777836326e-15
-7.910805076e-15
-8.032406736e-15
-8.142578504e-15
-8.241268301e-15
-8.328433489e-15
-8.404039605e-15
-8.468059218e-15
-8.520470889e-15
-8.561258374e-15
-8.590409687e-15
-8.607916833e-15
-4.313614913e-15
-7.048803046e-07
-7.91929821e-07
3.856149747e-07
9.261442483e-07
-5.712527233e-07
-2.69416241e-07
2.108100925e-07
1.004158202e-07
3.834660686e-10
-2.751747111e-16
-4.680260691e-16
-8.83011431e-16
-1.261641193e-15
-1.621514786e-15
-1.970842696e-15
-2.312498176e-15
-2.647470801e-15
-2.976021465e-15
-3.298091691e-15
-3.613470268e-15
-3.921865701e-15
-4.222944158e-15
-4.516352715e-15
-4.801734496e-15
-5.078738759e-15
-5.347027147e-15
-5.606277905e-15
-5.856188429e-15
-6.096476684e-15
-6.326882238e-15
-6.547166384e-15
-6.75711223e-15
-6.956523968e-15
-7.145226499e-15
-7.323064352e-15
-7.489900592e-15
-7.645615765e-15
-7.790106713e-15
-7.923284864e-15
-8.045075332e-15
-8.155415207e-15
-8.254252277e-15
-8.341543799e-15
-8.417255276e-15
-8.481359098e-15
-8.533833912e-15
-8.574663363e-15
-8.60383551e-15
-8.62134229e-15
-4.320286187e-15
-4.077700797e-07
-8.292677909e-07
1.84833853e-08
1.041694541e-06
1.934184435e-07
9.418209666e-08
2.35976718e-07
1.329943976e-07
4.33184147e-10
7.523115726e-13
-4.536937657e-16
-8.58360419e-16
-1.255629545e-15
-1.620414332e-15
-1.971704592e-15
-2.314597343e-15
-2.650523497e-15
-2.979874353e-15
-3.302646296e-15
-3.618657794e-15
-3.927636209e-15
-4.229259814e-15
-4.523183306e-15
-4.809054823e-15
-5.086526582e-15
-5.355262308e-15
-5.614941382e-15
-5.865261708e-15
-6.105941744e-15
-6.336721104e-15
-6.55736111e-15
-6.767644699e-15
-6.967375949e-15
-7.156379579e-15
-7.334499667e-15
-7.501599271e-15
-7.657558631e-15
-7.802274224e-15
-7.935657404e-15
-8.057632973e-15
-8.168137762e-15
-8.267119499e-15
-8.354535223e-15
-8.430350234e-15
-8.49453695e-15
-8.547073796e-15
-8.587944389e-15
-8.617136813e-15
-8.634642883e-15
-4.326863285e-15
1.341028885e-07
-1.922044856e-07
8.906293291e-08
9.073129474e-07
6.498362658e-07
4.474462113e-07
3.574827028e-07
1.414938392e-09
-4.887316229e-10
-6.048544788e-14
-4.082731042e-16
-8.811300405e-16
-1.267756538e-15
-1.627618649e-15
-1.977105567e-15
-2.319452185e-15
-2.655361823e-15
-2.984935037e-15
-3.308042583e-15
-3.624443339e-15
-3.933834991e-15
-4.235880795e-15
-4.53022724e-15
-4.816517661e-15
-5.094401398e-15
-5.363539818e-15
-5.62361075e-15
-5.874310916e-15
-6.115357613e-15
-6.346489636e-15
-6.567467507e-15
-6.778073506e-15
-6.978111145e-15
-7.167404288e-15
-7.345797004e-15
-7.513151423e-15
-7.669347636e-15
-7.814281602e-15
-7.94786437e-15
-8.070020372e-15
-8.180686212e-15
-8.279809279e-15
-8.367346432e-15
-8.443262751e-15
-8.507530476e-15
-8.560127979e-15
-8.601038681e-15
-8.630250677e-15
-8.647755713e-15
-4.333315086e-15
4.660591078e-07
4.063916894e-07
3.430680236e-07
6.845014465e-07
5.744164478e-07
3.233014745e-07
1.314472941e-07
-7.72426311e-08
1.263960077e-10
-2.474284998e-23
-5.270318648e-16
-9.254044516e-16
-1.287455428e-15
-1.639418106e-15
-1.985653269e-15
-2.326488842e-15
-2.661722481e-15
-2.991066716e-15
-3.314197514e-15
-3.630767518e-15
-3.940413748e-15
-4.242763828e-15
-4.537443346e-15
-4.824082543e-15
-5.102322157e-15
-5.371817835e-15
-5.632243112e-15
-5.883291731e-15
-6.124678648e-15
-6.356140783e-15
-6.57743711e-15
-6.788348747e-15
-6.988678108e-15
-7.178248344e-15
-7.356902427e-15
-7.524502159e-15
-7.680926744e-15
-7.826071812e-15
-7.959847832e-15
-8.08217882e-15
-8.19300102e-15
-8.292261459e-15
-8.379916685e-15
-8.455931599e-15
-8.520278182e-15
-8.572934587e-15
-8.613884245e-15
-8.643114951e-15
-8.66061865e-15
-4.339610991e-15
4.798693477e-07
5.551359247e-07
3.880259563e-07
3.766918988e-07
1.672798736e-07
-1.323664986e-07
-2.639010602e-07
-7.239668539e-09
7.186467819e-09
-2.365478295e-16
-5.926027524e-16
-9.553401629e-16
-1.305833782e-15
-1.652445986e-15
-1.995712876e-15
-2.334841466e-15
-2.669124257e-15
-2.997987445e-15
-3.320934399e-15
-3.637510363e-15
-3.947283678e-15
-4.249838212e-15
-4.544771398e-15
-4.831695216e-15
-5.11023814e-15
-5.380047327e-15
-5.640790264e-15
-5.892156043e-15
-6.13385629e-15
-6.365625249e-15
-6.587219871e-15
-6.798419455e-15
-6.999025011e-15
-7.188858656e-15
-7.367762207e-15
-7.535596577e-15
-7.692240349e-15
-7.837588351e-15
-7.971550489e-15
-8.094050253e-15
-8.205023519e-15
-8.304416745e-15
-8.392186289e-15
-8.468296582e-15
-8.532719489e-15
-8.585432873e-15
-8.626420034e-15
-8.655668698e-15
-8.673170599e-15
-4.345721012e-15
3.205583138e-07
3.356188275e-07
1.227311635e-07
-5.028364166e-08
-2.561659909e-07
-3.064692221e-07
-1.622386559e-07
2.098777796e-07
-4.716692989e-09
-2.761808494e-16
-6.202190655e-16
-9.758520149e-16
-1.321773015e-15
-1.665112075e-15
-2.006101855e-15
-2.34372305e-15
-2.677056497e-15
-3.005363798e-15
-3.328029911e-15
-3.644515464e-15
-3.954329238e-15
-4.25701341e-15
-4.552136564e-15
-4.839290812e-15
-5.118090771e-15
-5.3881737e-15
-5.649199682e-15
-5.900852629e-15
-6.142839863e-15
-6.374892428e-15
-6.596764772e-15
-6.808234226e-15
-7.00909991e-15
-7.199182484e-15
-7.378322725e-15
-7.546380473e-15
-7.703233322e-15
-7.848775364e-15
-7.982915875e-15
-8.105577667e-15
-8.216695973e-15
-8.316217009e-15
-8.404096488e-15
-8.480298694e-15
-8.544795037e-15
-8.597563234e-15
-8.638586359e-15
-8.667851996e-15
-8.68535184e-15
-4.351615952e-15
1.436401891e-07
2.160639273e-08
-2.490480041e-07
-4.807288802e-07
-4.566028796e-07
2.248444926e-08
2.578690524e-07
3.676950172e-07
-1.041719003e-07
-2.917883352e-16
-6.367396822e-16
-9.911269579e-16
-1.335187843e-15
-1.676654518e-15
-2.016088955e-15
-2.352555177e-15
-2.685089621e-15
-3.012884295e-15
-3.335257924e-15
-3.65161602e-15
-3.96142343e-15
-4.264188784e-15
-4.55945562e-15
-4.846797835e-15
-5.125816267e-15
-5.396138107e-15
-5.657416009e-15
-5.909328049e-15
-6.151577096e-15
-6.383890706e-15
-6.606020512e-15
-6.81774129e-15
-7.018850653e-15
-7.209167401e-15
-7.388531038e-15
-7.55680021e-15
-7.713851469e-15
-7.85957815e-15
-7.993888572e-15
-8.116704995e-15
-8.227962017e-15
-8.327605248e-15
-8.415590107e-15
-8.491880278e-15
-8.556446968e-15
-8.609267606e-15
-8.650324976e-15
-8.679606613e-15
-8.697104015e-15
-4.357267446e-15
9.045403816e-09
-2.145933093e-07
-4.776028498e-07
-6.581335595e-07
-2.833143803e-07
4.976909769e-07
2.610360513e-07
2.172065998e-08
-2.837340723e-07
-3.004935569e-16
-6.478334105e-16
-1.002679241e-15
-1.346177515e-15
-1.686753006e-15
-2.025274273e-15
-2.360964959e-15
-2.692909841e-15
-3.020296429e-15
-3.342419539e-15
-3.658655349e-15
-3.968441269e-15
-4.271262423e-15
-4.566643204e-15
-4.854142177e-15
-5.133348398e-15
-5.403879975e-15
-5.665382307e-15
-5.91752791e-15
-6.160015119e-15
-6.392568108e-15
-6.614935305e-15
-6.826889439e-15
-7.028225751e-15
-7.21876164e-15
-7.398334949e-15
-7.566803174e-15
-7.724041768e-15
-7.869943049e-15
-8.004414569e-15
-8.127377783e-15
-8.238766681e-15
-8.338526245e-15
-8.426611359e-15
-8.502985362e-15
-8.567619046e-15
-8.620489523e-15
-8.661579428e-15
-8.690875974e-15
-8.708370603e-15
-4.362648112e-15
-8.459493407e-08
-3.579613876e-07
-5.077504008e-07
-4.545311971e-07
3.905641255e-08
3.846416962e-07
4.692264743e-07
-7.177332208e-07
-3.520536199e-07
-3.058999158e-16
-6.555649196e-16
-1.011486468e-15
-1.355058413e-15
-1.69536976e-15
-2.033477507e-15
-2.368734977e-15
-2.70030644e-15
-3.027412902e-15
-3.349354398e-15
-3.665498679e-15
-3.975269724e-15
-4.278138429e-15
-4.573616464e-15
-4.861250855e-15
-5.140621597e-15
-5.411338717e-15
-5.673041712e-15
-5.925397735e-15
-6.168101352e-15
-6.40087291e-15
-6.623458408e-15
-6.83562788e-15
-7.037174679e-15
-7.227914404e-15
-7.407683479e-15
-7.576338056e-15
-7.733752495e-15
-7.879818024e-15
-8.014441349e-15
-8.137543151e-15
-8.24905664e-15
-8.348926284e-15
-8.437106369e-15
-8.513559764e-15
-8.578256906e-15
-8.631174496e-15
-8.672294954e-15
-8.701605326e-15
-8.719096902e-15
-4.367731565e-15
-1.372129498e-07
-4.188571548e-07
-4.415989635e-07
-1.926214133e-08
2.292722468e-07
-8.258652116e-07
8.16470278e-07
-5.818469309e-07
-1.528150864e-07
-3.094625273e-16
-6.611108062e-16
-1.018270443e-15
-1.362251892e-15
-1.702655308e-15
-2.040679444e-15
-2.375766543e-15
-2.707153214e-15
-3.034104811e-15
-3.35594167e-15
-3.6720369e-15
-3.981811872e-15
-4.2847312e-15
-4.58029903e-15
-4.86805512e-15
-5.14757252e-15
-5.418455608e-15
-5.680338558e-15
-5.932884444e-15
-6.175784092e-15
-6.408754799e-15
-6.631539912e-15
-6.843907142e-15
-7.045648024e-15
-7.236576383e-15
-7.416527147e-15
-7.585355138e-15
-7.742933548e-15
-7.889152687e-15
-8.0239182e-15
-8.147150017e-15
-8.25878058e-15
-8.358753759e-15
-8.44702318e-15
-8.523551362e-15
-8.588308147e-15
-8.641270017e-15
-8.682419058e-15
-8.71174214e-15
-8.729230349e-15
-4.372492631e-15
-1.513326471e-07
-3.710267398e-07
-3.931882986e-07
1.674146007e-07
2.479624157e-07
-1.698339293e-06
6.643133454e-07
6.378408085e-08
6.081105025e-10
-3.119451162e-16
-6.652231791e-16
-1.023508399e-15
-1.368103848e-15
-1.708810554e-15
-2.046950458e-15
-2.382044874e-15
-2.713390024e-15
-3.040292288e-15
-3.362095997e-15
-3.678186348e-15
-3.987988663e-15
-4.290967259e-15
-4.586623013e-15
-4.874491863e-15
-5.154142399e-15
-5.425174862e-15
-5.687219811e-15
-5.93993679e-15
-6.183013509e-15
-6.416164861e-15
-6.639131567e-15
-6.851679477e-15
-7.053598171e-15
-7.244699861e-15
-7.424818103e-15
-7.593806382e-15
-7.751536828e-15
-7.89789852e-15
-8.032796368e-15
-8.156149331e-15
-8.267889192e-15
-8.367959038e-15
-8.456312048e-15
-8.532910059e-15
-8.597722632e-15
-8.650725811e-15
-8.691901398e-15
-8.721235953e-15
-8.738720551e-15
-4.376907231e-15
-1.680893962e-07
-2.032000998e-07
-2.37199268e-07
5.922443154e-08
6.19629738e-08
-9.691389596e-07
5.309551032e-07
-5.71743563e-08
-6.385367953e-08
-3.137787425e-16
-6.68382337e-16
-1.0275928e-15
-1.372873218e-15
-1.714003114e-15
-2.05238001e-15
-2.387596401e-15
-2.71900012e-15
-3.04593268e-15
-3.367761495e-15
-3.683885613e-15
-3.993737951e-15
-4.296785552e-15
-4.592529765e-15
-4.880504873e-15
-5.160277429e-15
-5.431445043e-15
-5.693635592e-15
-5.946506251e-15
-6.189742314e-15
-6.423056365e-15
-6.646187276e-15
-6.858898939e-15
-7.060979352e-15
-7.252239155e-15
-7.432510627e-15
-7.601645946e-15
-7.759516099e-15
-7.906009226e-15
-8.041029263e-15
-8.164494292e-15
-8.276335364e-15
-8.376494881e-15
-8.464925423e-15
-8.541588304e-15
-8.606452606e-15