/*--------------------------------*- C++ -*----------------------------------*\
  =========                 |
  \\      /  F ield         | OpenFOAM: The Open Source CFD Toolbox
   \\    /   O peration     | Website:  https://openfoam.org
    \\  /    A nd           | Version:  6
     \\/     M anipulation  |
\*---------------------------------------------------------------------------*/
FoamFile
{
    version     2.0;
    format      ascii;
    class       volScalarField;
    location    "0.17";
    object      p_rgh;
}
// * * * * * * * * * * * * * * * * * * * * * * * * * * * * * * * * * * * * * //

dimensions      [1 -1 -2 0 0 0 0];

internalField   nonuniform List<scalar> 
2500
(
0.4950465069
0.6472693666
0.7595444999
0.7094319464
0.6600273767
0.6371205452
0.6271423366
0.6383291419
27276.76119
27711.47819
28134.19293
28537.11471
28914.37049
29263.02673
29582.41729
29873.34695
30137.42555
30376.60852
30592.9226
30788.32413
30964.63916
31123.54802
31266.59052
31395.17871
31510.61044
31614.08115
31706.69328
31789.46349
31863.32836
31929.14898
31987.71497
32039.7482
32085.9064
32126.78681
32162.92972
32194.82215
32222.90138
32247.55851
32269.14178
32287.95985
32304.28482
32318.355
32330.37756
32340.5308
32348.96621
32355.81032
32361.16619
32365.11469
32367.71538
32369.00703
0.3568679
0.6045723953
0.7383088087
0.7146272926
0.6556542019
0.6216424071
0.6078737339
0.6040180848
27276.74638
27722.38186
28153.97398
28562.76669
28942.95966
29292.28633
29610.87574
29900.19816
30162.32302
30399.48025
30613.83858
30807.41443
30982.04942
31139.41866
31281.04931
31408.33987
31522.57638
31624.94487
31716.54054
31798.37439
31871.37838
31936.40959
31994.2539
32045.62957
32091.19073
32131.531
32167.18706
32198.64234
32226.33062
32250.63962
32271.91435
32290.46045
32306.54718
32320.4103
32332.25465
32342.25644
32350.5654
32357.3065
32362.58156
32366.47051
32369.03246
32370.30675
0.1754951942
0.5056822982
0.6794684704
0.7036565235
0.6525427049
0.6018062647
0.5823404873
0.5835058932
27276.72816
27746.19609
28196.53804
28617.00253
29002.40549
29352.27935
29668.60159
29954.25011
30212.19292
30445.15668
30655.54348
30845.45249
31016.73274
31171.03559
31309.85632
31434.5636
31546.41925
31646.59075
31736.15934
31816.12526
31887.41168
31950.86793
32007.27266
32057.33695
32101.70778
32140.9715
32175.65755
32206.24215
32233.15203
32256.76808
32277.42885
32295.43388
32311.04679
32324.49818
32335.98821
32345.68897
32353.74657
32360.28293
32365.39731
32369.16765
32371.65155
32372.88715
0.003098972342
0.3269995202
0.5252260902
0.6176785492
0.5899506262
0.5460732108
0.5346079299
0.5523891542
27276.70018
27787.9309
28268.94988
28706.27783
29097.37015
29445.82194
29757.00364
30036.01236
30287.04739
30513.41593
30717.73224
30902.12554
31068.39992
31218.14141
31352.78383
31473.64638
31581.95402
31678.84767
31765.38927
31842.56444
31911.28427
31972.38727
32026.64159
32074.74783
32117.34223
32155.00024
32188.24029
32217.52769
32243.27847
32265.86322
32285.61068
32302.81117
32317.71982
32330.55943
32341.52316
32350.77689
32358.46131
32364.69371
32369.56955
32373.16369
32375.53146
32376.70936
-0.05854112058
0.1875747298
0.350029127
0.4804954464
0.4894904117
0.4717278282
0.4595458463
0.4947927908
27276.65407
27858.53218
28384.9962
28841.75952
29234.96836
29576.63835
29877.58601
30145.75612
30386.57563
30603.73412
30799.85036
30976.92378
31136.60634
31280.35292
31409.4981
31525.29134
31628.9104
31721.46461
31803.99399
31877.46764
31942.78272
32000.76461
32052.16823
32097.68045
32137.92323
32173.45734
32204.78633
32232.3607
32256.58201
32277.80691
32296.35088
32312.49189
32326.47361
32338.5084
32348.78007
32357.44619
32364.64021
32370.47328
32375.03575
32378.39842
32380.61358
32381.71567
-0.02801825925
0.1381357333
0.2379366424
0.3501183132
0.3940753608
0.400412502
0.3953209668
0.428994195
27276.62401
27982.90183
28570.63888
29040.76759
29424.11316
29748.19376
30030.96139
30282.8625
30509.77407
30715.10193
30901.01775
31069.11905
31220.75494
31357.17227
31479.57112
31589.11764
31686.93921
31774.11434
31851.66277
31920.53809
31981.62338
32035.72953
32083.59588
32125.8924
32163.22307
32196.12996
32225.09761
32250.55761
32272.89302
32292.44274
32309.50546
32324.34347
32337.18601
32348.23234
32357.65449
32365.59963
32372.1922
32377.53565
32381.71398
32384.79296
32386.82108
32387.83027
0.01985298936
0.1253201012
0.1777981231
0.2390237621
0.2903727743
0.3305516866
0.3677020678
0.3557564199
27276.51029
28223.47094
28873.73625
29326.5759
29672.57233
29961.10199
30215.229
30444.97417
30654.56621
30845.88895
31020.00564
31177.78543
31320.12794
31448.0163
31562.50311
31664.67596
31755.62198
31836.39871
31908.01298
31971.40726
32027.45218
32076.9436
32120.60299
32159.08009
32192.95685
32222.75222
32248.92719
32271.88995
32292.00079
32309.57679
32324.89616
32338.20209
32349.70633
32359.5923
32368.01785
32375.11769
32381.00543
32385.77533
32389.50383
32392.25065
32394.05981
32394.96028
0.02895866157
0.07655349855
0.08917875969
0.109739923
0.1708327636
0.2505831057
0.3160835752
0.208067989
27278.13445
28756.42904
29374.28783
29719.43282
29978.63148
30208.48054
30423.9104
30627.25409
30817.63563
30993.8873
31155.33503
31301.89383
31433.96035
31552.26773
31657.7555
31751.46809
31834.48153
31907.85348
31972.5915
32029.6345
32079.84354
32123.99903
32162.80203
32196.87803
32226.7822
32253.00529
32275.97963
32296.08506
32313.65443
32328.97873
32342.31171
32353.87397
32363.85662
32372.4245
32379.71888
32385.8599
32390.94861
32395.06863
32398.28759
32400.65829
32402.21957
32402.99694
0.006872361307
-0.004512502927
-0.05366766387
-0.06562400734
0.04660554826
0.2103379244
0.2434662682
23.20946187
29815.62811
30145.24224
30149.53433
30198.89094
30314.25176
30470.34425
30644.69715
30822.50108
30994.83632
31156.69094
31305.5557
31440.498
31561.55649
31669.34429
31764.78934
31848.96633
31922.99005
31987.95013
32044.87343
32094.70443
32138.2975
32176.41634
32209.73774
32238.85773
32264.29882
32286.51753
32305.91163
32322.82708
32337.56418
32350.38323
32361.50938
32371.13701
32379.43341
32386.54203
32392.5852
32397.66648
32401.87262
32405.27518
32407.93188
32409.88766
32411.17554
32411.81717
-0.02109862082
-0.07621220893
-0.1842383052
-0.2494668475
-0.1199695096
0.1504849772
0.3952797619
133.642067
35070.95675
31861.65437
30881.48523
30612.58673
30609.13061
30713.91228
30862.00649
31023.20066
31182.50897
31332.48087
31469.69871
31592.98828
31702.42736
31798.76889
31883.0975
31956.62482
32020.56975
32076.09162
32124.25608
32166.02108
32202.23483
32233.64051
32260.88454
32284.52627
32305.04804
32322.86479
32338.33294
32351.7583
32363.40306
32373.49186
32382.21699
32389.74284
32396.20969
32401.73684
32406.42536
32410.36026
32413.61235
32416.2398
32418.28934
32419.79724
32420.79006
32421.28524
-0.04058400313
-0.1153507286
-0.2321029028
-0.3395964344
-0.2837439312
-0.03102569469
0.09049884738
57.4756772
32241.50353
31355.01821
30896.83838
30759.38972
30795.3101
30913.99609
31066.14248
31225.75173
31379.50168
31521.01791
31647.76848
31759.33086
31856.39975
31940.21182
32012.21338
32073.87285
32126.58024
32171.59869
32210.04674
32242.89786
32270.98939
32295.0358
32315.64336
32333.32473
32348.51246
32361.57109
32372.80769
32382.48097
32390.80894
32397.97539
32404.13527
32409.41924
32413.93736
32417.78213
32421.0311
32423.74888
32425.98885
32427.79454
32429.2007
32430.23418
32430.91457
32431.25467
-0.05314784531
-0.1231469224
-0.2112626394
-0.3092609656
-0.3105874486
-0.1729321357
-0.2577250016
23.95176834
29927.6431
30425.84422
30591.65161
30732.53733
30898.51795
31080.50483
31262.7549
31434.13066
31588.71269
31724.31435
31841.02559
31940.1694
32023.63353
32093.47119
32151.67819
32200.08046
32240.28763
32273.68454
32301.44301
32324.54319
32343.79833
32359.87943
32373.33811
32384.62682
32394.11621
32402.10984
32408.85641
32414.55981
32419.3874
32423.4767
32426.94087
32429.87307
32432.35007
32434.43506
32436.17998
32437.62736
32438.81177
32439.76101
32440.497
32441.03651
32441.39168
32441.5704
-0.06321760123
-0.1186285786
-0.1748354414
-0.2376817348
-0.2580347124
-0.2301538644
-0.4030244401
15.59891204
29119.5498
29827.89113
30312.6792
30680.89105
30985.7555
31246.7298
31470.21837
31659.28797
31816.89648
31946.49931
32051.85204
32136.69197
32204.4997
32258.36811
32300.95529
32334.49118
32360.81362
32381.41744
32397.50643
32410.04266
32419.7906
32427.355
32433.2126
32437.73821
32441.22592
32443.90609
32445.95894
32447.52531
32448.71518
32449.61438
32450.28982
32450.79365
32451.16648
32451.43988
32451.63835
32451.78086
32451.882
32451.95293
32452.00204
32452.03548
32452.05757
32452.07103
-0.07276798337
-0.1138426836
-0.1513875084
-0.1879231216
-0.1928054197
-0.2418468786
-0.403070811
10.54594771
28534.75242
29449.8629
30150.54335
30692.76295
31116.95068
31450.45967
31712.10423
31915.90723
32073.08826
32192.93873
32283.19732
32350.25387
32399.31298
32434.55446
32459.29213
32476.12393
32487.06695
32493.67404
32497.13161
32498.33959
32497.97579
32496.54695
32494.42884
32491.89748
32489.15337
32486.34008
32483.55858
32480.87814
32478.34467
32475.98702
32473.82175
32471.85678
32470.09402
32468.53145
32467.16463
32465.98777
32464.99459
32464.17889
32463.53501
32463.05811
32462.74441
32462.59131
-0.08281521824
-0.1138128362
-0.1425572176
-0.1706543884
-0.1735118817
-0.2561359388
-0.3339294268
8.253092009
28209.51444
29282.35166
30146.93919
30822.73323
31338.86911
31726.0803
32011.84852
32219.16142
32366.6222
32468.98106
32537.75531
32581.82353
32607.95387
32621.25426
32625.54421
32623.65468
32617.66532
32609.08926
32599.01552
32588.21754
32577.2354
32566.43774
32556.06808
32546.27947
32537.16017
32528.75266
32521.06775
32514.0948
32507.80934
32502.17846
32497.16478
32492.72923
32488.83304
32485.4391
32482.51289
32480.02305
32477.94182
32476.24523
32474.91326
32473.92986
32473.28299
32472.96466
-0.09373567092
-0.1182289583
-0.1433643746
-0.1762776903
-0.1966379743
-0.2772775781
-0.3039053523
7.306603084
28067.41604
29318.71757
30332.07507
31112.35452
31689.7301
32103.16864
32390.07287
32582.29036
32705.27804
32778.62548
32817.03466
32831.34457
32829.43679
32816.97551
32797.98601
32775.29501
32750.85979
32726.01142
32701.63289
32678.28891
32656.31991
32635.91004
32617.13599
32600.00209
32584.4653
32570.45302
32557.87552
32546.63477
32536.63042
32527.76389
32519.94102
32513.07384
32507.08149
32501.89085
32497.43671
32493.66177
32490.51654
32487.95918
32485.95521
32484.47737
32483.50539
32483.02584
-0.1050396892
-0.1232996216
-0.1458683403
-0.1804172624
-0.221885674
-0.3023986052
-0.4145961631
6.784254955
28095.09722
29588.13081
30750.15989
31604.83662
32204.53754
32606.82132
32863.01876
33014.68181
33093.60241
33123.2318
33120.43285
33097.09958
33061.48707
33019.23704
32974.14016
32928.68958
32884.47696
32842.47301
32803.2249
32766.99449
32733.8546
32703.75597
32676.57338
32652.13743
32630.25602
32610.72888
32593.35706
32577.94908
32564.32464
32552.3168
32541.77294
32532.55511
32524.5399
32517.61791
32511.69326
32506.68281
32502.51555
32499.13194
32496.48331
32494.53135
32493.2477
32492.61363
-0.1151932859
-0.1250715883
-0.1426451709
-0.1712757644
-0.2277416145
-0.2949197265
-0.5438740883
6.081377282
28354.98268
30182.85683
31475.44832
32352.26918
32916.79483
33256.61158
33440.55075
33519.86085
33531.25483
33500.29565
33444.38831
33375.15214
33300.18978
33224.358
33150.65903
33080.85622
33015.89488
32956.18786
32901.80824
32852.61858
32808.35719
32768.69516
32733.27368
32701.72799
32673.70248
32648.85966
32626.88524
32607.49054
32590.4132
32575.41686
32562.29013
32550.84528
32540.91673
32532.35946
32525.04754
32518.87269
32513.74304
32509.58195
32506.32702
32503.92934
32502.35278
32501.57351
-0.1224031051
-0.1212408033
-0.1293886268
-0.1451105815
-0.1955314956
-0.230309233
-0.4727847781
7.151257959
29276.10771
31306.34616
32616.57209
33412.07687
33853.8567
34062.36994
34122.78758
34093.01527
34011.30512
33902.34093
33781.6975
33658.94984
33539.77685
33427.35844
33323.29233
33228.19096
33142.06749
33064.58409
32995.21032
32933.32317
32878.26935
32829.40297
32786.10756
32747.80802
32713.97615
32684.1322
32657.84412
32634.7253
32614.43165
32596.6584
32581.13673
32567.63064
32555.93393
32545.86745
32537.27666
32530.02943
32524.01413
32519.138
32515.32576
32512.51854
32510.67291
32509.76029
-0.1252753414
-0.1112090901
-0.1051723504
-0.1031910605
-0.1230637241
-0.1405768677
-0.273359995
9.897859735
31126.84224
33142.76514
34272.62889
34825.81582
35024.3646
35016.3633
34895.31594
34718.17895
34518.65894
34316.0998
34121.13518
33939.19058
33772.62292
33622.01758
33486.97042
33366.55649
33259.60834
33164.87888
33081.134
33007.20286
32942.00273
32884.54872
32833.95478
32789.4299
32750.27168
32715.85896
32685.6441
32659.14548
32635.94056
32615.65943
32597.97903
32582.61809
32569.33253
32557.91154
32548.17416
32539.96629
32533.15819
32527.64237
32523.33179
32520.15847
32518.07239
32517.04062
-0.123352787
-0.09597574889
-0.0731006903
-0.05369000917
-0.03345418264
-0.07043469866
-0.02124183595
16.08349926
34187.85318
35858.179
36505.7715
36594.56491
36401.69887
36083.58886
35724.05359
35365.80108
35029.09938
34722.29452
34447.57296
34204.06846
33989.51728
33801.12725
33636.02303
33491.46356
33364.93777
33254.1965
33157.25161
33072.35952
32997.99831
32932.84305
32875.74198
32825.69447
32781.83141
32743.39787
32709.73811
32680.28253
32654.5365
32632.07076
32612.51314
32595.54161
32580.87818
32568.28381
32557.55407
32548.51542
32541.02213
32534.95373
32530.21284
32526.72352
32524.42992
32523.29533
-0.1173271514
-0.07760007803
-0.03741071533
-0.002867444736
0.05966981972
-0.009337449064
0.260016858
35.93141056
38928.12767
39590.45963
39298.62753
38645.58355
37904.64504
37192.449
36551.62405
35991.93546
35509.67759
35096.42547
34742.80539
34440.00087
34180.25656
33956.95652
33764.53629
33598.34257
33454.48874
33329.72428
33221.32341
33126.99279
33044.79589
32973.09162
32910.48444
32855.78381
32807.97117
32766.17291
32729.63817
32697.72054
32669.86295
32645.58497
32624.47242
32606.16849
32590.3664
32576.80326
32565.25482
32555.53123
32547.47334
32540.94981
32535.85463
32532.10519
32529.64081
32528.42163
-0.1090898661
-0.05891272521
-0.00264157054
0.05053538151
0.1483388225
0.09827848215
0.2476480634
111.6210301
45870.09097
44274.95527
42454.30446
40785.29378
39379.22497
38230.10574
37298.12832
36540.6658
35921.25841
35410.92574
34987.22163
34632.87256
34334.55195
34081.90755
33866.82574
33682.88548
33524.95508
33388.89404
33271.33133
33169.49935
33081.10845
33004.25124
32937.32898
32878.99424
32828.10604
32783.69427
32744.93127
32711.10901
32681.62051
32655.94477
32633.63432
32614.30495
32597.62731
32583.31977
32571.14267
32560.89339
32552.40237
32545.5298
32540.16299
32536.21417
32533.61891
32532.33489
-0.1016387159
-0.04419625387
0.02292539842
0.09625259776
0.2185480317
0.3533301162
0.5828813413
498.8832159
53442.46947
49188.59344
45459.67697
42662.6606
40597.0272
39050.63544
37870.08823
36951.30606
36223.73516
35638.77567
35162.26775
34769.70608
34443.16562
34169.29365
33937.97376
33741.42054
33573.55559
33429.57022
33305.61428
33198.57144
33105.89462
33025.48387
32955.59447
32894.76708
32841.77387
32795.57663
32755.29377
32720.17415
32689.57605
32662.95029
32639.82635
32619.80114
32602.52973
32587.71766
32575.11465
32564.50936
32555.7251
32548.61631
32543.06569
32538.98198
32536.29817
32534.9703
-0.09759080077
-0.03752053872
0.03200778596
0.1049265582
0.2042305851
0.2672945127
0.2776711941
356.4008534
53123.01312
53593.38863
47536.51522
43808.73562
41295.28643
39505.06928
38180.11504
37170.62725
36383.53159
35758.12981
35253.33944
34840.50076
34499.1003
34214.12217
33974.35313
33771.26797
33598.27913
33450.2211
33322.98945
33213.28378
33118.42183
33036.20291
32964.80632
32902.71462
32848.65508
32801.55436
32760.50314
32724.72818
32693.57
32666.46497
32642.93087
32622.55498
32604.98445
32589.91829
32577.10085
32566.31638
32557.38456
32550.15691
32544.51383
32540.36227
32537.63393
32536.284
-0.09799674883
-0.0388689687
0.0293071267
0.09985859321
0.1947489806
0.2467374054
0.2577320485
300.8425083
52239.0839
52697.69241
47303.2717
43737.12764
41269.08527
39493.68759
38174.39139
37167.39699
36381.53972
35756.81476
35252.42351
34839.83502
34498.59937
34213.73432
33974.04554
33771.01898
33598.07396
33450.04938
33322.84371
33213.15855
33118.31299
33036.10734
32964.7216
32902.63886
32848.58677
32801.4923
32760.44636
32724.67588
32693.5215
32666.41974
32642.88843
32622.51493
32604.94644
32589.88203
32577.06607
32566.28284
32557.35205
32550.12524
32544.48281
32540.33174
32537.60372
32536.25396
-0.1027183621
-0.04777118463
0.01594983034
0.08379558836
0.1969149265
0.3175314798
0.5590820739
454.8990581
53144.98269
48815.97141
45260.32345
42566.1859
40549.47255
39025.76185
37856.11091
36942.8789
36218.32406
35635.1093
35159.66938
34767.79447
34441.71467
34168.163
33937.07269
33740.68837
33572.95048
33429.06254
33305.18258
33198.19986
33105.57125
33025.19959
32955.34222
32894.54131
32841.57017
32795.39146
32755.12425
32720.01791
32689.43115
32662.81507
32639.69943
32619.68134
32602.41602
32587.60915
32575.01055
32564.40897
32555.62779
32548.52149
32542.97283
32538.89057
32536.20773
32534.88034
-0.1105275792
-0.06369025126
-0.01151294131
0.03624554618
0.1260053023
0.0722322747
0.237296311
114.0012103
45920.67807
44176.18727
42356.75817
40717.7868
39336.64028
38203.57954
37281.26861
36529.58674
35913.70416
35405.587
34983.32307
34629.94171
34332.29167
34080.12498
33865.39201
33681.71207
33523.97971
33388.07191
33270.62956
33168.8934
33080.5797
33003.78536
32936.91479
32878.62292
32827.77054
32783.38891
32744.65143
32710.85086
32681.38088
32655.72101
32633.42416
32614.10648
32597.43884
32583.13986
32570.97002
32560.72685
32552.24089
32545.37245
32540.00886
32536.06243
32533.46875
32532.18555
-0.1188574264
-0.08275653761
-0.0465560308
-0.01645670937
0.04109729591
-0.02965246705
0.2346923262
38.43879513
39106.90655
39616.65496
39273.51126
38611.95432
37875.85082
37170.66221
36535.77422
35980.46536
35501.29259
35090.19141
34738.08014
34436.34855
34177.38013
33954.65116
33762.65856
33596.79033
33453.18802
33328.62065
33220.37621
33126.17117
33044.07618
32972.4554
32909.91722
32855.27407
32807.50965
32765.75209
32729.25189
32697.36373
32669.53135
32645.27501
32624.18105
32605.8931
32590.10473
32576.55332
32565.01487
32555.29967
32547.24876
32540.7309
32535.64015
32531.89401
32529.43182
32528.21375
-0.1248511635
-0.1011265699
-0.08207014032
-0.06669224524
-0.05014037673
-0.08972965939
-0.02718127824
17.6700058
34335.23725
35908.93692
36510.12266
36581.35055
36384.47188
36067.59456
35710.76648
35355.23434
35020.81854
34715.80809
34442.45751
34199.99213
33986.22984
33798.44276
33633.80363
33489.60659
33363.36627
33252.85219
33156.08991
33071.34602
32997.10616
32932.05109
32875.03336
32825.05567
32781.25147
32742.86785
32709.25062
32679.83143
32654.11664
32631.67776
32612.1433
32595.19171
32580.54543
32567.96575
32557.24851
32548.22041
32540.73589
32534.6746
32529.93931
32526.45413
32524.16329
32523.03012
-0.1266915516
-0.11615838
-0.1137846865
-0.1157395098
-0.1398760141
-0.1625330772
-0.2961039461
10.37645026
31179.40915
33168.36509
34277.58183
34819.4227
35013.43154
35004.67255
34884.57212
34708.94778
34510.97316
34309.78445
34115.96163
33934.94072
33769.11066
33619.09204
33484.51216
33364.47195
33257.82448
33163.33857
33079.79237
33006.02449
32940.95945
32883.61798
32833.11842
32788.67315
32749.58245
32715.22728
32685.06168
32658.60539
32635.43694
32615.18728
32597.53409
32582.19663
32568.93131
32557.5277
32547.80514
32539.60978
32532.8121
32527.30474
32523.00082
32519.83244
32517.74965
32516.71957
-0.1237027129
-0.125811409
-0.137325795
-0.1567290677
-0.2117339238
-0.2535172372
-0.5109294731
6.832613761
29243.61702
31300.62661
32612.86338
33405.7026
33845.42913
34053.272
34114.01742
34085.08487
34004.38847
33896.42498
33776.68394
33654.71262
33536.19081
33424.31143
33320.68891
33225.95206
33140.12857
33062.89281
32993.72434
32932.00824
32877.09764
32828.35181
32785.15839
32746.94557
32713.18775
32683.40732
32657.1739
32634.10227
32613.84946
32596.11159
32580.62059
32567.14107
32555.46731
32545.42059
32536.84668
32529.61374
32523.61033
32518.74389
32514.93929
32512.13772
32510.29587
32509.38519
-0.116354404
-0.1291191657
-0.1495510889
-0.1810498546
-0.2405198682
-0.3111310573
-0.5667023756
5.845117928
28329.43324
30170.53226
31467.8333
32345.32575
32909.49543
33249.10819
33433.24098
33513.05617
33525.11971
33494.87713
33439.6607
33371.05277
33296.6422
33221.28513
33147.98967
33078.52766
33013.85338
32954.38811
32900.21236
32851.19508
32807.0799
32767.54233
32732.22718
32700.7727
32672.82568
32648.05063
32626.13491
32606.79115
32589.75811
32574.80031
32561.70713
32550.29144
32540.38816
32531.85269
32524.55944
32518.40043
32513.284
32509.13368
32505.88724
32503.49587
32501.92352
32501.14642
-0.1060689368
-0.1268118366
-0.1517193478
-0.1882737288
-0.2308988601
-0.3101393815
-0.418580543
6.654648459
28078.52497
29577.62072
30742.68099
31598.36047
32198.21881
32600.51626
32856.85793
33008.83804
33088.20146
33118.33622
33116.05378
33093.21453
33058.05512
33016.20963
32971.46773
32926.32527
32882.37838
32840.60284
32801.55082
32765.48879
32732.49369
32702.51979
32675.44493
32651.10223
32629.30176
32609.84503
32592.5346
32577.18022
32563.60265
32551.63578
32541.12773
32531.94115
32523.95311
32517.05464
32511.15017
32506.15688
32502.00397
32498.63208
32495.9927
32494.04762
32492.76856
32492.13685
-0.09466032363
-0.1213125018
-0.1484676309
-0.1831045691
-0.2045331804
-0.2841513939
-0.3112107115
7.235738127
28061.79367
29313.03045
30326.7609
31107.19362
31684.53799
32097.93242
32384.88852
32577.2817
32700.54861
32774.24163
32813.02664
32827.71478
32826.16913
32814.04325
32795.35752
32772.93751
32748.74166
32724.10336
32699.90852
32676.72484
32654.89566
32634.60778
32615.94027
32598.89955
32583.44437
32569.50364
32556.98899
32545.80348
32535.8477
32527.02386
32519.23847
32512.40412
32506.44044
32501.27469
32496.84197
32493.08528
32489.95536
32487.41052
32485.41644
32483.94597
32482.97891
32482.5019
-0.08365695802
-0.116567307
-0.1471611067
-0.1770638322
-0.181808826
-0.2659559431
-0.3466820137
8.25033333
28212.53579
29281.06076
30144.0063
30819.07164
31334.81695
31721.81738
32007.51705
32214.88444
32362.49796
32465.0787
32534.11597
32578.46518
32604.87734
32618.44893
32622.99259
32621.33583
32615.55711
32607.16993
32597.26447
32586.61583
32575.76589
32565.08511
32554.81875
32545.12145
32536.08287
32527.74678
32520.12506
32513.20805
32506.97208
32501.38494
32496.40985
32492.00827
32488.14184
32484.77384
32481.87002
32479.39931
32477.33415
32475.65074
32474.3292
32473.35357
32472.71191
32472.39626
-0.07353141422
-0.1162958492
-0.1555057192
-0.1937330484
-0.2004942344
-0.2515592569
-0.4133437051
10.57174915
28539.07345
29450.3188
30149.07305
30690.26076
31113.85826
31447.02786
31708.50272
31912.26373
32069.50014
32189.47678
32279.90877
32347.16623
32396.43834
32431.8937
32456.83852
32473.86602
32484.99067
32491.76425
32495.37308
32496.71762
32496.47659
32495.15782
32493.13818
32490.69485
32488.02934
32485.28622
32482.56732
32479.9427
32477.45894
32475.14549
32473.01944
32471.08913
32469.35687
32467.82098
32466.47728
32465.32021
32464.3437
32463.5417
32462.90867
32462.43989
32462.13162
32461.98133
-0.06389790798
-0.1207802709
-0.1784385618
-0.2426802413
-0.2642638961
-0.2375279419
-0.4102524875
15.60719404
29120.90176
29828.17023
30311.77479
30679.10562
30983.37164
31243.95935
31467.21916
31656.18067
31813.77377
31943.43062
32048.88688
32133.86306
32201.82622
32255.85883
32298.61136
32332.30849
32358.78465
32379.53268
32395.75537
32408.41451
32418.27473
32425.94124
32431.89139
32436.50069
32440.06393
32442.81217
32444.92626
32446.54765
32447.78687
32448.73021
32449.44503
32449.98385
32450.3876
32450.68815
32450.91023
32451.07301
32451.19127
32451.27629
32451.33659
32451.3784
32451.40611
32451.42248
-0.05373944841
-0.1250052784
-0.2143924228
-0.313568231
-0.315731314
-0.1786476369
-0.2637239089
23.95806602
29928.67282
30426.06438
30591.013
30731.18651
30896.6309
31078.23796
31260.23739
31431.46697
31585.98606
31721.58955
31838.35124
31937.5802
32021.15263
32091.11243
32149.44826
32197.98074
32238.31574
32271.83558
32299.7105
32322.91978
32342.27626
32358.45091
32371.99555
32383.36292
32392.92408
32400.98303
32407.78889
32413.54599
32418.42208
32422.55505
32426.0584
32429.02559
32431.53366
32433.64603
32435.41484
32436.88281
32438.08464
32439.04825
32439.79567
32440.34375
32440.70468
32440.88639
-0.04108296384
-0.1169204493
-0.2347602553
-0.3432201183
-0.2880353664
-0.03562498917
0.08572943451
57.49694227
32242.91849
31355.23198
30896.31983
30758.29791
30793.76358
30912.10377
31064.00232
31223.44853
31377.1065
31518.58854
31645.35038
31756.95841
31854.09776
31937.9971
32010.09628
32071.85871
32124.67057
32169.79229
32208.34044
32241.28723
32269.46924
32293.60048
32314.28708
32332.04171
32347.29703
32360.4178
32371.71133
32381.43659
32389.81185
32397.02117
32403.21974
32408.53844
32413.08754
32416.95973
32420.23271
32422.97123
32425.22881
32427.04906
32428.46683
32429.50902
32430.19527
32430.53842
-0.02150055003
-0.0775025203
-0.1863509551
-0.2522586872
-0.1232905371
0.146881857
0.3916158808
133.6179816
35070.40174
31861.39469
30880.92637
30611.63528
30607.81583
30712.29668
30860.15903
31021.187
31180.38758
31330.30163
31467.50265
31590.80796
31700.28768
31796.68808
31881.08817
31954.69499
32018.72383
32074.33122
32122.58072
32164.42879
32200.72257
32232.20455
32259.5207
32283.23015
32303.81514
32321.69063
32337.21309
32350.68845
32362.37906
32372.50969
32381.27279
32388.83292
32395.33048
32400.88493
32405.59744
32409.55313
32412.82292
32415.46504
32417.52629
32419.043
32420.04176
32420.54002
0.006555440993
-0.00553776136
-0.05527488213
-0.06773163183
0.04393371082
0.2072522568
0.2405318703
23.21188292
29816.04831
30145.10558
30149.03054
30198.05114
30313.10645
30468.93658
30643.07688
30820.71864
30992.93902
31154.72099
31303.54929
31438.48509
31559.56111
31667.38501
31762.87999
31847.11668
31921.20654
31986.23651
32043.23132
32093.13384
32136.79722
32174.98426
32208.37112
32237.55341
32263.05337
32285.32733
32304.77303
32321.73638
32336.51773
32349.37742
32360.54069
32370.202
32378.52872
32385.66439
32391.73143
32396.83347
32401.05732
32404.47459
32407.14306
32409.10771
32410.40157
32411.04632
0.02868195532
0.07574096446
0.08787750339
0.1079693552
0.1684878656
0.2477869095
0.3131243908
0.2058472691
27278.16279
28756.22624
29373.80727
29718.67416
29977.61261
30207.23119
30422.46708
30625.65571
30815.92038
30992.09064
31153.4885
31300.02455
31432.09092
31550.41642
31655.93663
31749.69248
31832.75699
31906.18532
31970.98297
32028.08718
32078.3577
32122.57395
32161.4362
32195.56936
32225.5282
32251.80317
32274.8264
32294.97761
32312.58958
32327.95328
32341.32244
32352.91771
32362.93021
32371.52483
32378.84288
32385.00455
32390.11093
32394.24567
32397.47643
32399.85603
32401.42332
32402.20383
0.01959536906
0.1246428059
0.176672969
0.2374231318
0.2882508269
0.3280611064
0.3650074729
0.3532472518
27276.50483
28223.2503
28873.27945
29325.88062
29671.65027
29959.97459
30213.92385
30443.52181
30652.99775
30844.23422
31018.29208
31176.03739
31318.36643
31446.2589
31560.76418
31662.96686
31753.95142
31834.77311
31906.43678
31969.88329
32025.98191
32075.52742
32119.24042
32157.76998
32191.69753
32221.5416
32247.76291
32270.7694
32290.92123
32308.53539
32323.89
32337.22823
32348.76181
32358.67417
32367.12316
32374.24351
32380.14884
32384.93344
32388.67374
32391.42949
32393.24469
32394.14831
-0.0282474672
0.1375654472
0.2369650849
0.3486717343
0.3921563527
0.3982302782
0.3929824985
0.4266333573
27276.6163
27982.68529
28570.20822
29040.12409
29423.26658
29747.16088
30029.76399
30281.52525
30508.32272
30713.56189
30899.41301
31067.47151
31219.08401
31355.49471
31477.90105
31587.46663
31685.31654
31772.52718
31850.11645
31919.03637
31980.16867
32034.32313
32082.23816
32124.58297
32161.96095
32194.91368
32223.92533
32249.42718
32271.8021
32291.38879
32308.48586
32323.35549
32336.22687
32347.29923
32356.74457
32364.71007
32371.32015
32376.67826
32380.8684
32383.95632
32385.99051
32387.00287
-0.05874029036
0.1870855834
0.3491700277
0.4791862061
0.4877781186
0.469799707
0.4575321651
0.4926863221
27276.64762
27858.32598
28384.59044
28841.15812
29234.18057
29575.67834
29876.47184
30144.50838
30385.21618
30602.28497
30798.33275
30975.35755
31135.00948
31278.74135
31407.88559
31523.68948
31627.32878
31719.9109
31802.47415
31875.98613
31941.34267
31999.36802
32050.81615
32096.37312
32136.66023
32172.2377
32203.60865
32231.22323
32255.48273
32276.74356
32295.32107
32311.49308
32325.50318
32337.56367
32347.85832
32356.54464
32363.7561
32369.6038
32374.17808
32377.54974
32379.771
32380.87629
0.002923914853
0.3265373943
0.5243881866
0.6164394029
0.5884170459
0.5443415111
0.5327768053
0.5504866925
27276.69957
27787.73582
28268.56515
28705.70935
29096.62707
29444.91688
29755.95224
30034.83243
30285.75803
30512.03664
30716.28215
30900.62285
31066.86146
31216.58236
31351.21755
31472.08442
31580.4061
31677.32178
31763.89182
31841.10038
31909.85728
31970.99987
32025.29534
32073.44346
32116.07977
32153.77912
32187.05946
32216.3857
32242.17357
32264.79339
32284.5737
32301.80468
32316.74132
32329.60635
32340.59286
32349.86669
32357.56848
32363.81551
32368.7032
32372.30639
32374.68034
32375.86147
0.1753249819
0.5052085949
0.6786075368
0.7024390259
0.6510731666
0.6001896478
0.5806230074
0.5817377885
27276.72907
27746.00823
28196.16848
28616.45788
29001.69458
29351.41373
29667.59528
29953.11906
30210.95434
30443.8283
30654.14294
30843.99676
31015.23776
31169.51594
31308.32504
31433.03212
31544.89735
31645.08663
31734.67968
31814.67536
31885.99558
31949.48856
32005.93193
32056.03596
32100.44687
32139.7504
32174.47548
32205.09789
32232.04402
32255.69448
32276.38759
32294.42271
32310.06332
32323.53992
32335.05259
32344.77336
32352.84831
32359.39932
32364.52563
32368.30513
32370.79536
32372.03426
0.3567291454
0.6040869241
0.7374275733
0.7134182054
0.6542198843
0.6200957567
0.6062507392
0.6023025526
27276.73844