/*--------------------------------*- C++ -*----------------------------------*\
  =========                 |
  \\      /  F ield         | OpenFOAM: The Open Source CFD Toolbox
   \\    /   O peration     | Website:  https://openfoam.org
    \\  /    A nd           | Version:  6
     \\/     M anipulation  |
\*---------------------------------------------------------------------------*/
FoamFile
{
    version     2.0;
    format      ascii;
    class       surfaceScalarField;
    location    "0.17";
    object      phi;
}
// * * * * * * * * * * * * * * * * * * * * * * * * * * * * * * * * * * * * * //

dimensions      [0 3 -1 0 0 0 0];

internalField   nonuniform List<scalar> 
4900
(
-9.407036182e-08
-7.854657262e-08
-4.378876008e-08
-5.028160174e-08
-9.472593935e-09
-3.431616613e-08
1.065783107e-08
-2.013042499e-08
1.556744315e-08
-4.909612054e-09
9.63843732e-09
5.929005864e-09
3.603851986e-10
9.278052158e-09
-3.45115104e-17
3.603852785e-10
-4.335983265e-20
2.42250555e-25
-4.226898276e-20
-1.09084989e-21
-4.02901887e-20
-1.978821425e-21
-3.772436287e-20
-2.565887352e-21
-3.486501946e-20
-2.859437039e-21
-3.193886327e-20
-2.926281066e-21
-2.909301781e-20
-2.846001204e-21
-2.640803925e-20
-2.685164872e-21
-2.391853195e-20
-2.48972385e-21
-2.163166143e-20
-2.287116917e-21
-1.954040799e-20
-2.091529271e-21
-1.763175386e-20
-1.90895892e-21
-1.589112956e-20
-1.740957502e-21
-1.430448923e-20
-1.587001388e-21
-1.285905505e-20
-1.445822476e-21
-1.154340598e-20
-1.316063946e-21
-1.034730108e-20
-1.196545654e-21
-9.261439119e-21
-1.086327856e-21
-8.277244045e-21
-9.846853444e-22
-7.386705511e-21
-8.91052374e-22
-6.582274777e-21
-8.049673105e-22
-5.856804835e-21
-7.260283921e-22
-5.203521174e-21
-6.538630962e-22
-4.616011053e-21
-5.881096313e-22
-4.088221966e-21
-5.284077386e-22
-3.614462884e-21
-4.743959222e-22
-3.189404269e-21
-4.257126766e-22
-2.808074687e-21
-3.81999879e-22
-2.465853155e-21
-3.429070695e-22
-2.15845712e-21
-3.080958021e-22
-1.88192651e-21
-2.772435895e-22
-1.632604464e-21
-2.500472101e-22
-1.407115475e-21
-2.262253034e-22
-1.202341619e-21
-2.055202814e-22
-1.015397467e-21
-1.876996441e-22
-8.436041535e-22
-1.725568234e-22
-6.844629067e-22
-1.599117238e-22
-5.356280624e-22
-1.496112358e-22
-3.948789384e-22
-1.415303765e-22
-2.600878609e-22
-1.355761378e-22
-1.291738801e-22
-1.317017957e-22
-1.299633918e-22
-1.495710578e-07
-1.229271131e-07
-9.229325698e-08
-1.075594026e-07
-4.618284836e-08
-8.042657472e-08
-1.716504839e-08
-4.914822492e-08
-5.134565008e-09
-1.694009538e-08
-1.746687914e-09
2.541128822e-09
-5.713857387e-10
8.102750025e-09
-1.52940269e-17
-2.110004421e-10
-4.4448179e-20
3.692246051e-25
-4.315645154e-20
-2.382631974e-21
-4.087729005e-20
-4.258097399e-21
-3.801824465e-20
-5.425106197e-21
-3.493226e-20
-5.945651312e-21
-3.185891554e-20
-5.999910333e-21
-2.893241101e-20
-5.772845128e-21
-2.621273543e-20
-5.405233816e-21
-2.371599603e-20
-4.986909907e-21
-2.143610388e-20
-4.567508245e-21
-1.935784547e-20
-4.170338492e-21
-1.746374986e-20
-3.803656047e-21
-1.573716713e-20
-3.468191425e-21
-1.416330354e-20
-3.161564721e-21
-1.272929061e-20
-2.880582524e-21
-1.142388297e-20
-2.622264827e-21
-1.023707964e-20
-2.384187034e-21
-9.15979376e-21
-2.164495192e-21
-8.183608749e-21
-1.961793789e-21
-7.300618423e-21
-1.775006612e-21
-6.503333981e-21
-1.603254596e-21
-5.784637717e-21
-1.44576484e-21
-5.137765896e-21
-1.301810808e-21
-4.556307342e-21
-1.170678112e-21
-4.034208332e-21
-1.051649006e-21
-3.565777839e-21
-9.439992671e-22
-3.145689711e-21
-8.470024903e-22
-2.768980178e-21
-7.599381446e-22
-2.431040268e-21
-6.821009553e-22
-2.127603385e-21
-6.128100797e-22
-1.854728718e-21
-5.514172322e-22
-1.608781263e-21
-4.9731337e-22
-1.386409285e-21
-4.499338568e-22
-1.184519944e-21
-4.087621985e-22
-1.00025374e-21
-3.733325489e-22
-8.309582807e-22
-3.432312297e-22
-6.741617786e-22
-3.180975363e-22
-5.275466975e-22
-2.976241103e-22
-3.889243365e-22
-2.81557139e-22
-2.562133347e-22
-2.696962928e-22
-1.274353649e-22
-2.618918674e-22
-2.580222047e-22
-1.65559426e-07
-1.362472685e-07
-1.235578048e-07
-1.495610238e-07
-7.245703197e-08
-1.315273475e-07
-2.857306446e-08
-9.30321924e-08
-6.468996972e-09
-3.904416283e-08
-2.461045735e-09
-1.466822364e-09
2.069185467e-10
5.434785805e-09
-1.046932723e-17
-4.081845744e-12
-4.682437014e-20
1.222687241e-24
-4.503091046e-20
-4.176136394e-21
-4.204460382e-20
-7.244499406e-21
-3.853968574e-20
-8.930170616e-21
-3.498744091e-20
-9.498091283e-21
-3.163255303e-20
-9.355041439e-21
-2.856524865e-20
-8.840440347e-21
-2.579465989e-20
-8.17616051e-21
-2.32967112e-20
-7.485243026e-21
-2.103897563e-20
-6.825674072e-21
-1.899116684e-20
-6.218622636e-21
-1.712827343e-20
-5.667069077e-21
-1.54305245e-20
-5.166503358e-21
-1.388230645e-20
-4.710388181e-21
-1.247096078e-20
-4.292575002e-21
-1.118579589e-20
-3.90811683e-21
-1.00173808e-20
-3.553328404e-21
-8.957086959e-21
-3.225553265e-21
-7.996817161e-21
-2.922864529e-21
-7.12886253e-21
-2.643797593e-21
-6.345840585e-21
-2.387146955e-21
-5.640680108e-21
-2.151828414e-21
-5.00662961e-21
-1.936795662e-21
-4.437274616e-21
-1.740997271e-21
-3.926554964e-21
-1.563361146e-21
-3.468777464e-21
-1.402796072e-21
-3.058621844e-21
-1.258202696e-21
-2.691139591e-21
-1.128488712e-21
-2.361746157e-21
-1.012584858e-21
-2.066207498e-21
-9.094597771e-22
-1.800622038e-21
-8.18132699e-22
-1.561399173e-21
-7.376835982e-22
-1.345235303e-21
-6.672608265e-22
-1.14908823e-21
-6.060864784e-22
-9.701506197e-22
-5.534598397e-22
-8.058230494e-22
-5.087593157e-22
-6.536870773e-22
-4.71443218e-22
-5.114787112e-22
-4.410497363e-22
-3.770627316e-22
-4.171962836e-22
-2.484083907e-22
-3.995780536e-22
-1.235653869e-22
-3.879648688e-22
-3.821951486e-22
-1.463474227e-07
-1.199007847e-07
-1.364110265e-07
-1.594974199e-07
-9.904795849e-08
-1.688904156e-07
-4.924814606e-08
-1.428320048e-07
-7.996170567e-09
-8.02961383e-08
4.007691695e-09
-1.347068461e-08
7.217212237e-10
8.720756306e-09
-3.760826286e-18
7.176394005e-10
-5.098792374e-20
3.471789606e-24
-4.80978982e-20
-7.066205982e-21
-4.373158544e-20
-1.161090584e-20
-3.910963053e-20
-1.355226933e-20
-3.484608398e-20
-1.376182973e-20
-3.111906037e-20
-1.308230436e-20
-2.79015844e-20
-1.205820259e-20
-2.510403301e-20
-1.097404461e-20
-2.263724867e-20
-9.952405939e-21
-2.04319395e-20
-9.031407028e-21
-1.843959096e-20
-8.211439428e-21
-1.662767514e-20
-7.479496826e-21
-1.497437861e-20
-6.820354596e-21
-1.346446853e-20
-6.220894819e-21
-1.208648416e-20
-5.671196766e-21
-1.083099415e-20
-5.16428399e-21
-9.689595988e-21
-4.695442351e-21
-8.654390867e-21
-4.261511621e-21
-7.71774417e-21
-3.860300675e-21
-6.87220645e-21
-3.490159695e-21
-6.110516798e-21
-3.1496946e-21
-5.425642088e-21
-2.837593361e-21
-4.810825852e-21
-2.55253298e-21
-4.259633033e-21
-2.293140584e-21
-3.765984394e-21
-2.057988228e-21
-3.324178629e-21
-1.845606739e-21
-2.928902517e-21
-1.654508659e-21
-2.575230586e-21
-1.483213909e-21
-2.258616178e-21
-1.330274398e-21
-1.974875826e-21
-1.194295561e-21
-1.720168685e-21
-1.073953994e-21
-1.490972518e-21
-9.680110512e-22
-1.284057456e-21
-8.753227076e-22
-1.096458487e-21
-7.948461941e-22
-9.254473901e-22
-7.256439994e-22
-7.685046438e-22
-6.668858226e-22
-6.232916825e-22
-6.178490173e-22
-4.876237355e-22
-5.779179745e-22
-3.594433628e-22
-5.465827721e-22
-2.367944443e-22
-5.234372768e-22
-1.177952873e-22
-5.081768709e-22
-5.005968085e-22
-1.036138671e-07
-8.586984749e-08
-1.242293133e-07
-1.388819737e-07
-1.130496311e-07
-1.800700978e-07
-7.487388124e-08
-1.810077547e-07
-2.672300267e-08
-1.284470169e-07
1.980022175e-09
-4.217370944e-08
-8.077941752e-11
1.078155791e-08
4.607859233e-18
6.368599816e-10
-5.802817579e-20
7.17432878e-25
-5.264214398e-20
-1.245228181e-20
-4.567726924e-20
-1.857587415e-20
-3.932338887e-20
-1.990629335e-20
-3.416927804e-20
-1.891613224e-20
-3.009638247e-20
-1.715543901e-20
-2.681804128e-20
-1.533682976e-20
-2.40825865e-20
-1.370983178e-20
-2.17162527e-20
-1.231911796e-20
-1.961190741e-20
-1.113617572e-20
-1.770757249e-20
-1.011624218e-20
-1.596846741e-20
-9.21911339e-21
-1.437486923e-20
-8.414507009e-21
-1.291473555e-20
-7.681624551e-21
-1.157954775e-20
-7.007021427e-21
-1.036213665e-20
-6.382371685e-21
-9.255654248e-21
-5.802639952e-21
-8.253171624e-21
-5.264746871e-21
-7.347596182e-21
-4.766664933e-21
-6.531734767e-21
-4.306844838e-21
-5.798408924e-21
-3.883877757e-21
-5.14057483e-21
-3.496316991e-21
-4.55142631e-21
-3.142601861e-21
-4.024473328e-21
-2.821043318e-21
-3.553595469e-21
-2.529843767e-21
-3.133073154e-21
-2.267133175e-21
-2.757600533e-21
-2.03101033e-21
-2.422284109e-21
-1.819582784e-21
-2.122630732e-21
-1.631002073e-21
-1.854528075e-21
-1.463492801e-21
-1.614220031e-21
-1.315375328e-21
-1.398278969e-21
-1.185082522e-21
-1.203576263e-21
-1.071171343e-21
-1.027252148e-21
-9.72330153e-22
-8.666856055e-22
-8.873826885e-22
-7.19464765e-22
-8.152894961e-22
-5.833580943e-22
-7.551475856e-22
-4.562865084e-22
-7.06188897e-22
-3.362963558e-22
-6.677780705e-22
-2.215330329e-22
-6.394099191e-22
-1.102147252e-22
-6.207070294e-22
-6.114181659e-22
-6.02973632e-08
-4.809566835e-08
-9.934362639e-08
-9.983571052e-08
-1.13846358e-07
-1.655673662e-07
-9.45820074e-08
-2.002721053e-07
-5.168819431e-08
-1.7134083e-07
-1.030641199e-08
-8.355549178e-08
-5.483135773e-10
1.02345948e-09
1.084202172e-17
8.854638155e-11
-7.042112211e-20
6.513936822e-24
-5.877314779e-20
-2.410030017e-20
-4.701997057e-20
-3.032914498e-20
-3.834096567e-20
-2.858544196e-20
-3.241215396e-20
-2.484513573e-20
-2.8279028e-20
-2.128880415e-20
-2.519127139e-20
-1.842487249e-20
-2.26917327e-20
-1.620970303e-20
-2.053308791e-20
-1.447814116e-20
-1.859177338e-20
-1.307791386e-20
-1.681029245e-20
-1.189819119e-20
-1.516375702e-20
-1.086616056e-20
-1.364191947e-20
-9.936899096e-21
-1.224009069e-20
-9.084049699e-21
-1.095487272e-20
-8.292876601e-21
-9.782389425e-21
-7.555531954e-21
-8.717750951e-21
-6.867994028e-21
-7.755081878e-21
-6.228168995e-21
-6.887768996e-21
-5.634767082e-21
-6.108760418e-21
-5.086677616e-21
-5.410840332e-21
-4.582655652e-21
-4.786851241e-21
-4.121196134e-21
-4.229858772e-21
-3.700515225e-21
-3.733264426e-21
-3.318587968e-21
-3.290875374e-21
-2.97321107e-21
-2.896940853e-21
-2.662072404e-21
-2.546163754e-21
-2.382817082e-21
-2.233694531e-21
-2.13310507e-21
-1.955113072e-21
-1.910658457e-21
-1.706402777e-21
-1.713298315e-21
-1.483920022e-21
-1.538972019e-21
-1.284361241e-21
-1.385772365e-21
-1.104729201e-21
-1.25194997e-21
-9.422994948e-22
-1.135920367e-21
-7.94587906e-22
-1.03626709e-21
-6.593190213e-22
-9.517418807e-22
-5.343962357e-22
-8.812629342e-22
-4.178731634e-22
-8.239119677e-22
-3.079263263e-22
-7.789307092e-22
-2.028288961e-22
-7.457173181e-22
-1.009252418e-22
-7.238231796e-22
-7.12950491e-22
-2.972641085e-08
-1.87887324e-08
-7.409510699e-08
-5.546701438e-08
-1.079211825e-07
-1.317412907e-07
-1.082673486e-07
-1.999259392e-07
-7.376422178e-08
-2.058439568e-07
-2.491347226e-08
-1.324062413e-07
1.054694609e-09
-2.494470741e-08
1.082169293e-17
1.143240953e-09
-9.438497936e-20
-7.996077069e-22
-6.505039591e-20
-5.343492769e-20
-4.530607211e-20
-5.007356244e-20
-3.461160342e-20
-3.928005445e-20
-2.885839721e-20
-3.059853384e-20
-2.541489472e-20
-2.473254597e-20
-2.297528336e-20
-2.086477016e-20
-2.095941229e-20
-1.822590687e-20
-1.913230739e-20
-1.630562472e-20
-1.741168682e-20
-1.479895832e-20
-1.577803709e-20
-1.353230932e-20
-1.423436356e-20
-1.241034619e-20
-1.278899618e-20
-1.138282141e-20
-1.144887816e-20
-1.042476452e-20
-1.021750781e-20
-9.524884633e-21
-9.0948409e-21
-8.678876338e-21
-8.077919368e-21
-7.885631705e-21
-7.161674336e-21
-7.145167655e-21
-6.33967325e-21
-6.457558044e-21
-5.60473089e-21
-5.822444817e-21
-4.94937187e-21
-5.238873152e-21
-4.366160194e-21
-4.705298563e-21
-3.847920494e-21
-4.219676547e-21
-3.387875969e-21
-3.779583551e-21
-2.979724941e-21
-3.382341124e-21
-2.617673842e-21
-3.025129007e-21
-2.296440364e-21
-2.70508103e-21
-2.011237038e-21
-2.419362295e-21
-1.757742682e-21
-2.165228589e-21
-1.532066959e-21
-1.940070126e-21
-1.330711635e-21
-1.74144216e-21
-1.150530938e-21
-1.567085016e-21
-9.886925285e-22
-1.414935869e-21
-8.426399883e-22
-1.283134324e-21
-7.100572976e-22
-1.170023509e-21
-5.888354927e-22
-1.074148104e-21
-4.770414863e-22
-9.942504234e-22
-3.728889036e-22
-9.292654678e-22
-2.747106997e-22
-8.783156315e-22
-1.809332749e-22
-8.407056252e-22
-9.005181624e-23
-8.159180447e-22
-8.036099129e-22
-1.372277733e-08
-3.472246944e-09
-5.156127794e-08
-1.762851379e-08
-9.629749375e-08
-8.700507491e-08
-1.156587828e-07
-1.805646502e-07
-9.447314216e-08
-2.270295975e-07
-4.291683638e-08
-1.839625471e-07
1.016635055e-09
-6.887817888e-08
1.135024149e-17
2.15987597e-09
-1.472437872e-19
-2.537995764e-19
-6.19317113e-20
-1.387470477e-19
-3.456096962e-20
-7.744439785e-20
-2.593382248e-20
-4.790734548e-20
-2.298839036e-20
-3.354415798e-20
-2.154329169e-20
-2.617788412e-20
-2.033387315e-20
-2.20744752e-20
-1.903760586e-20
-1.952250716e-20
-1.762477247e-20
-1.771883704e-20
-1.614456047e-20
-1.627959453e-20
-1.465582211e-20
-1.502151643e-20
-1.320671344e-20
-1.385996735e-20
-1.183088245e-20
-1.275920776e-20
-1.054897646e-20
-1.17072678e-20
-9.371493756e-21
-1.070300553e-20
-8.301596189e-21
-9.749451944e-21
-7.337455567e-21
-8.850489075e-21
-6.474062848e-21
-8.009314645e-21
-5.704555189e-21
-7.227856261e-21
-5.021151465e-21
-6.506674099e-21
-4.415787036e-21
-5.845096813e-21
-3.88052605e-21
-5.241451085e-21
-3.407814105e-21
-4.693310929e-21
-2.990619447e-21
-4.19773011e-21
-2.622498505e-21
-3.751441965e-21
-2.297611705e-21
-3.351022209e-21
-2.010707925e-21
-2.9930162e-21
-1.757090301e-21
-2.674034761e-21
-1.532572014e-21
-2.390823615e-21
-1.333427714e-21
-2.140311492e-21
-1.156344195e-21
-1.919641489e-21
-9.983725055e-22
-1.726189666e-21
-8.568827142e-22
-1.557574169e-21
-7.295219111e-22
-1.411657572e-21
-6.141756163e-22
-1.286544568e-21
-5.089324982e-22
-1.180576681e-21
-4.120521524e-22
-1.092325296e-21
-3.219355995e-22
-1.020583983e-21
-2.370981136e-22
-9.643608809e-22
-1.561439848e-22
-9.228716801e-22
-7.774283524e-23
-8.955336427e-22
-8.819609332e-22
-3.753599904e-09
2.39073398e-09
-2.786894189e-08
6.486828181e-09
-7.476130532e-08
-4.01127115e-08
-1.117167315e-07
-1.43609224e-07
-1.106517858e-07
-2.280945431e-07
-6.861096968e-08
-2.260033633e-07
-7.764670093e-09
-1.297244785e-07
-1.001192944e-18
-5.604794106e-09
-3.27822458e-20
-5.228978814e-19
-5.244833119e-22
-1.710048543e-19
-4.941728909e-21
-7.302724604e-20
-1.152984824e-20
-4.131937012e-20
-1.560344212e-20
-2.947075625e-20
-1.743131361e-20
-2.435025227e-20
-1.777788119e-20
-2.172819431e-20
-1.723201152e-20
-2.006871006e-20
-1.618461075e-20
-1.876661702e-20
-1.48860574e-20
-1.757857241e-20
-1.34940932e-20
-1.641394975e-20
-1.210589325e-20
-1.524868021e-20
-1.077893626e-20
-1.408672057e-20
-9.544728987e-21
-1.294207287e-20
-8.417959317e-21
-1.183041396e-20
-7.402649125e-21
-1.076544078e-20
-6.496290645e-21
-9.757564956e-21
-5.692607176e-21
-8.813753083e-21
-4.983369612e-21
-7.937885122e-21
-4.359565777e-21
-7.131304274e-21
-3.812129161e-21
-6.393393481e-21
-3.332371158e-21
-5.722101482e-21
-2.912216959e-21
-5.114388457e-21
-2.544314193e-21
-4.566585703e-21
-2.222061493e-21
-4.074675517e-21
-1.939588772e-21
-3.634502316e-21
-1.691710237e-21
-3.241927135e-21
-1.473863822e-21
-2.89293705e-21
-1.282045629e-21
-2.583719601e-21
-1.112744614e-21
-2.310710648e-21
-9.628804838e-22
-2.070622522e-21
-8.297463412e-22
-1.860457878e-21
-7.109566588e-22
-1.677513482e-21
-6.044006311e-22
-1.519377177e-21
-5.082006014e-22
-1.383920503e-21
-4.206750936e-22
-1.269288796e-21
-3.403058916e-22
-1.173890178e-21
-2.657085847e-22
-1.096384408e-21
-1.956060064e-22
-1.035672379e-21
-1.288040234e-22
-9.908867455e-22
-6.416917067e-23
-9.61384099e-22
-9.467389215e-22
6.903307306e-09
3.855505946e-09
-1.972895533e-09
1.5363031e-08
-4.020616918e-08
-1.879437878e-09
-8.974776648e-08
-9.406762675e-08
-1.113528884e-07
-2.064894212e-07
-8.401514866e-08
-2.533411031e-07
-4.17024321e-08
-1.72037195e-07
1.612750732e-18
-4.730722619e-08
3.196067648e-19
2.806148e-19
9.839231359e-20
5.020955279e-20
2.700060675e-20
-1.635633027e-21
3.850299081e-22
-1.470393733e-20
-1.046161769e-20
-1.862430091e-20
-1.480152086e-20
-2.001058889e-20
-1.611535034e-20
-2.04146517e-20
-1.592869282e-20
-2.025570105e-20
-1.499610862e-20
-1.969958071e-20
-1.3721312e-20
-1.885379388e-20
-1.232884202e-20
-1.780688924e-20
-1.094400274e-20
-1.663403285e-20
-9.634366367e-21
-1.539691326e-20
-8.433138174e-21
-1.414389941e-20
-7.353037925e-21
-1.291115357e-20
-6.394807948e-21
-1.172435006e-20
-5.552498047e-21
-1.060059296e-20
-4.816745849e-21
-9.550261e-21
-4.176785629e-21
-8.578637436e-21
-3.621644702e-21
-7.687272383e-21
-3.140821954e-21
-6.875077165e-21
-2.724639795e-21
-6.13917696e-21
-2.364394131e-21
-5.475558414e-21
-2.052383251e-21
-4.879550408e-21
-1.781867622e-21
-4.346173032e-21
-1.546993554e-21
-3.870384834e-21
-1.34270112e-21
-3.447253061e-21
-1.164628581e-21
-3.072066583e-21
-1.009020267e-21
-2.740406854e-21
-8.726415285e-22
-2.448188693e-21
-7.52702349e-22
-2.19167979e-21
-6.467899072e-22
-1.967505592e-21
-5.528097336e-22
-1.772644503e-21
-4.689347024e-22
-1.604417016e-21
-3.935609525e-22
-1.460471398e-21
-3.25269788e-22
-1.338767817e-21
-2.627946393e-22
-1.237562261e-21
-2.049922288e-22
-1.155391196e-21
-1.508171634e-22
-1.091057626e-21
-9.929925469e-23
-1.043618998e-21
-4.952294046e-23
-1.012377278e-21
-9.96871362e-22
1.792461281e-08
3.854349455e-09
1.925199258e-08
1.403565122e-08
1.935509945e-10
1.71790037e-08
-5.14929145e-08
-4.238116126e-08
-9.306975153e-08
-1.649125842e-07
-8.250957207e-08
-2.639012825e-07
-2.326266501e-08
-2.312841021e-07
7.420855651e-18
-7.056989119e-08
8.836934037e-20
2.308545643e-19
4.585090837e-20
9.272794062e-20
1.378364445e-20
3.043153701e-20
-3.568446965e-21
2.648009944e-21
-1.185564848e-20
-1.033729175e-20
-1.520766379e-20
-1.665881352e-20
-1.595721895e-20
-1.96653836e-20
-1.537310423e-20
-2.084014946e-20
-1.415076119e-20
-2.092230352e-20
-1.26747812e-20
-2.033019907e-20
-1.115629284e-20
-1.93258475e-20
-9.707124214e-21
-1.808371528e-20
-8.381532806e-21
-1.672306151e-20
-7.200520356e-21
-1.532551078e-20
-6.166319693e-21
-1.394599422e-20
-5.271102585e-21
-1.262024715e-20
-4.502192397e-21
-1.1370222e-20
-3.845129972e-21
-1.020807994e-20
-3.285415098e-21
-9.139145254e-21
-2.8094351e-21
-8.164080462e-21
-2.404901689e-21
-7.280472458e-21
-2.060997912e-21
-6.483975046e-21
-1.768361253e-21
-5.769120397e-21
-1.5189807e-21
-5.129885857e-21
-1.306054796e-21
-4.56008193e-21
-1.123838262e-21
-4.053610959e-21
-9.674925854e-22
-3.604633404e-21
-8.32948462e-22
-3.207668903e-21
-7.167834787e-22
-2.857652003e-21
-6.161157854e-22
-2.549956945e-21
-5.285130726e-22
-2.280401865e-21
-4.519154477e-22
-2.045239781e-21
-3.845705126e-22
-1.841141595e-21
-3.249789069e-22
-1.665174753e-21
-2.718486701e-22
-1.514780115e-21
-2.240569303e-22
-1.387748757e-21
-1.806176034e-22
-1.282199873e-21
-1.406539566e-22
-1.196560576e-21
-1.033750544e-22
-1.129548068e-21
-6.805523447e-23
-1.080154523e-21
-3.401588458e-23
-1.047634853e-21
-1.031497476e-21
2.726387416e-08
3.489943871e-09
3.078366414e-08
1.051586124e-08
2.896037923e-08
1.900228861e-08
-1.027749752e-08
-3.143284489e-09
-6.964948522e-08
-1.055405964e-07
-8.742406452e-08
-2.461267031e-07
-3.929371083e-08
-2.794144558e-07
1.937333757e-17
-1.09863602e-07
-4.955954468e-20
8.069578994e-20
-1.665588747e-20
5.982423921e-20
-1.409955505e-20
2.787511067e-20
-1.659471727e-20
5.14302797e-21
-1.819399133e-20
-8.738210155e-21
-1.822166737e-20
-1.663137755e-20
-1.713568333e-20
-2.075165488e-20
-1.545734923e-20
-2.251881747e-20
-1.355996557e-20
-2.282006723e-20
-1.167130096e-20
-2.221928922e-20
-9.914756198e-21
-2.108286256e-20
-8.346878051e-21
-1.96521077e-20
-6.984256373e-21
-1.808624055e-20
-5.821182224e-21
-1.648918444e-20
-4.840682207e-21
-1.492713489e-20
-4.021138121e-21
-1.344047195e-20
-3.340076895e-21
-1.205200285e-20
-2.776198561e-21
-1.077271564e-20
-2.310338232e-21
-9.605799427e-21
-1.925805376e-21
-8.549442351e-21
-1.608376964e-21
-7.598763755e-21
-1.346113185e-21
-6.747134184e-21
-1.129095808e-21
-5.987064194e-21
-9.491463308e-22
-5.310791367e-21
-7.995546749e-22
-4.710657756e-21
-6.748333519e-22
-4.179343087e-21
-5.705028027e-22
-3.709999866e-21
-4.829084765e-22
-3.296322704e-21
-4.090675525e-22
-2.9325744e-21
-3.465420082e-22
-2.613584381e-21
-2.933343777e-22
-2.334730214e-21
-2.478026292e-22
-2.091909471e-21
-2.085909026e-22
-1.881506873e-21
-1.745732494e-22
-1.700359947e-21
-1.448079285e-22
-1.54572534e-21
-1.185002003e-22
-1.415247119e-21
-9.497190716e-23
-1.306927894e-21
-7.363642183e-23
-1.219103243e-21
-5.397779279e-23
-1.15041969e-21
-3.553311241e-23
-1.099816362e-21
-1.787729271e-23
-1.066510351e-21
-1.049985769e-21
3.455630533e-08
2.997205359e-09
3.684017484e-08
8.231991732e-09
4.108594951e-08
1.475651396e-08
2.206500575e-08
1.58776593e-08
-3.924879893e-08
-4.422679168e-08
-8.475681224e-08
-2.006186898e-07
-5.802847301e-08
-3.06142795e-07
1.551594953e-17
-1.678920751e-07
-7.052199034e-20
5.779768389e-20
-4.850397039e-20
3.780617504e-20
-3.68330758e-20
1.620412212e-20
-3.049023322e-20
-1.199958852e-21
-2.60982431e-20
-1.313039279e-20
-2.234905066e-20
-2.038081016e-20
-1.890728507e-20
-2.419370785e-20
-1.57614195e-20
-2.566501717e-20
-1.296101971e-20
-2.562084732e-20
-1.053608085e-20
-2.464465395e-20
-8.48479726e-21
-2.313461685e-20
-6.781530345e-21
-2.135588936e-20
-5.387531083e-21
-1.948079772e-20
-4.259334446e-21
-1.761798121e-20
-3.354133206e-21
-1.583297747e-20
-2.632723911e-21
-1.416256271e-20
-2.060805598e-21
-1.262464162e-20
-1.609273294e-21
-1.122500619e-20
-1.253956775e-21
-9.961910735e-21
-9.750936702e-22
-8.829135492e-21
-7.567099958e-22
-7.818011371e-21
-5.860044385e-22
-6.918736209e-21
-4.52784752e-22
-6.121211455e-21
-3.489761789e-22
-5.415557174e-21
-2.682058283e-22
-4.792413519e-21
-2.05458662e-22
-4.243102338e-21
-1.567970096e-22
-3.759698748e-21
-1.191343709e-22
-3.335046167e-21
-9.005446905e-23
-2.962737154e-21
-6.76673718e-23
-2.637074778e-21
-5.049559763e-23
-2.353024138e-21
-3.738425328e-23
-2.106160211e-21
-2.743029083e-23
-1.89261586e-21
-1.992688973e-23
-1.709032379e-21
-1.431974365e-23
-1.552513894e-21
-1.017267298e-23
-1.42058634e-21
-7.140504669e-24
-1.311161315e-21
-4.947577434e-24
-1.222504883e-21
-3.370560306e-24
-1.153211236e-21
-2.224528589e-24
-1.102181091e-21
-1.351437201e-24
-1.06860466e-21
-1.051949018e-21
4.012936243e-08
2.538454459e-09
4.100072275e-08
7.360631428e-09
4.411719878e-08
1.164003795e-08
4.030521432e-08
1.968964382e-08
-6.374861854e-09
2.453284523e-09
-7.323127011e-08
-1.337622816e-07
-7.147628984e-08
-3.078977754e-07
-2.402185438e-18
-2.39368365e-07
-9.113208919e-20
3.156317436e-20
-7.00803687e-20
1.675441032e-20
-5.423065083e-20
3.543102902e-22
-4.242458392e-20
-1.300617002e-20
-3.335486e-20
-2.220030926e-20
-2.616742721e-20
-2.756848318e-20
-2.038272678e-20
-2.997869578e-20
-1.572016872e-20
-3.032790952e-20
-1.198681845e-20
-2.935457815e-20
-9.027370203e-21
-2.760452838e-20
-6.70693173e-21
-2.545552643e-20
-4.906982035e-21
-2.315635428e-20
-3.525042287e-21
-2.086329594e-20
-2.474514577e-21
-1.866910969e-20
-1.683807958e-21
-1.662432614e-20
-1.094831789e-21
-1.475222113e-20
-6.611614592e-22
-1.305903326e-20
-3.461467888e-22
-1.154078003e-20
-1.211382465e-22
-1.018771506e-20
3.607939179e-23
-8.987184215e-21
1.426155819e-22
-7.925412608e-21
2.115696345e-22
-6.988587888e-21
2.529162484e-22
-6.163486855e-21
2.742107889e-22
-5.437810205e-21
2.811449021e-22
-4.800334345e-21
2.779806413e-22
-4.240951505e-21
2.678875431e-22
-3.750644259e-21
2.532030669e-22
-3.321423931e-21
2.356330281e-22
-2.946251416e-21
2.164053438e-22
-2.618951869e-21
1.963876219e-22
-2.33413007e-21
1.761768525e-22
-2.087090364e-21
1.561676355e-22
-1.873763216e-21
1.366039365e-22
-1.690639277e-21
1.176182279e-22
-1.534711174e-21
9.926099998e-23
-1.403422854e-21
8.152293901e-23
-1.29462611e-21
6.435155289e-23
-1.20654382e-21
4.766362301e-23
-1.137739449e-21
3.135456037e-23
-1.087092343e-21
1.530551885e-23
-1.053778453e-21
-1.037256157e-21
4.48281321e-08
2.255036994e-09
4.526442619e-08
6.924337343e-09
4.58505136e-08
1.105395056e-08
4.797450407e-08
1.756565339e-08
2.377686371e-08
2.665092487e-08
-5.099988394e-08
-5.898553407e-08
-7.912333789e-08
-2.797743216e-07
-2.118598808e-17
-3.184917028e-07
-1.068581262e-19
1.285880447e-20
-8.646234159e-20
-3.64141846e-21
-6.758543634e-20
-1.85226889e-20
-5.162039589e-20
-2.897135469e-20
-3.87273658e-20
-3.509353188e-20
-2.85821255e-20
-3.771396372e-20
-2.073563605e-20
-3.782547278e-20
-1.474956949e-20
-3.631431052e-20
-1.023865961e-20
-3.38658688e-20
-6.879613419e-21
-3.096400106e-20
-4.408541674e-21
-2.792706967e-20
-2.614387818e-21
-2.495102384e-20
-1.331108842e-21
-2.214713396e-20
-4.298474815e-22
-1.957097248e-20
1.882658035e-22
-1.724308222e-20
5.983759283e-22
-1.516301433e-20
8.571404334e-22
-1.331851997e-20
1.006981364e-21
-1.169138109e-20
1.079461368e-21
-1.026099186e-20
1.097919953e-21
-9.006474976e-21
1.07950631e-21
-7.907865163e-21
1.036732057e-21
-6.946712469e-21
9.78648913e-22
-6.106333756e-21
9.117370906e-22
-5.371858183e-21
8.405727395e-22
-4.730158064e-21
7.683277474e-22
-4.16972134e-21
6.971429917e-22
-3.680499553e-21
6.284063879e-22
-3.253751043e-21
5.629594901e-22
-2.881890328e-21
5.012505674e-22
-2.558349262e-21
4.434476283e-22
-2.277452351e-21
3.895215052e-22
-2.034306754e-21
3.393065746e-22
-1.82470647e-21
2.925447881e-22
-1.645049719e-21
2.489172618e-22
-1.492268284e-21
2.080666079e-22
-1.363767604e-21
1.696123928e-22
-1.257376422e-21
1.331615129e-22
-1.171304943e-21
9.831483908e-23
-1.104110604e-21
6.46711513e-23
-1.054670657e-21
3.182914855e-23
-1.022160972e-21
-1.006040545e-21
4.92617114e-08
2.102234957e-09
4.981779134e-08
6.368257405e-09
4.97363472e-08
1.113539469e-08
5.248150016e-08
1.482050044e-08
4.846930457e-08
3.066312039e-08
-1.531962877e-08
4.80339928e-09
-7.714518445e-08
-2.179487661e-07
-2.239555113e-18
-3.956368871e-07
-1.246564288e-19
-4.56564402e-21
-1.013365904e-19
-2.696130105e-20
-7.8034645e-20
-4.18247282e-20
-5.774670182e-20
-4.925944198e-20
-4.135277038e-20
-5.148765575e-20
-2.8698075e-20
-5.036889928e-20
-1.922790808e-20
-4.729592726e-20
-1.230355196e-20
-4.323900114e-20
-7.338386606e-21
-3.883141509e-20
-3.843663346e-21
-3.445915107e-20
-1.433052971e-21
-3.033815191e-20
1.892238399e-22
-2.657381682e-20
1.244949753e-21
-2.320341948e-20
1.898044918e-21
-2.022466973e-20
2.268394841e-21
-1.761407568e-20
2.442961262e-21
-1.533826465e-20
2.484382217e-21
-1.336066405e-20
2.437474836e-21
-1.164523483e-20
2.334077935e-21
-1.015839283e-20
2.196621869e-21
-8.869852216e-21
2.040742276e-21
-7.752852961e-21
1.877184989e-21
-6.784055267e-21
1.713189997e-21
-5.943270114e-21
1.553494654e-21
-5.213123998e-21
1.4010596e-21
-4.578712485e-21
1.257593147e-21
-4.027271163e-21
1.123929343e-21
-3.547877288e-21
1.000299867e-21
-3.13118681e-21
8.86528866e-22
-2.769206699e-21
7.821718832e-22
-2.45510019e-21
6.86614204e-22
-2.183021516e-21
5.991397527e-22
-1.947976465e-21
5.189786286e-22
-1.745705203e-21
4.453391623e-22
-1.572584172e-21
3.774287695e-22
-1.425544235e-21
3.144667163e-22
-1.302002677e-21
2.556910651e-22
-1.19980703e-21
2.003614513e-22
-1.117189073e-21
1.477588957e-22
-1.052727623e-21
9.718353367e-23
-1.005319046e-21
4.795090713e-23
-9.741546169e-22
-9.587040779e-22
5.355195766e-08
1.898751269e-09
5.435360621e-08
5.566608856e-09
5.526314747e-08
1.022585342e-08
5.666492254e-08
1.341872533e-08
6.367915407e-08
2.364888873e-08
2.844438941e-08
4.003816411e-08
-6.032924729e-08
-1.291751295e-07
4.147750936e-17
-4.559661345e-07
-1.487676503e-19
-2.83188163e-20
-1.162092038e-19
-5.951979169e-20
-8.548046446e-20
-7.255356123e-20
-5.998424213e-20
-7.475580822e-20
-4.024100604e-20
-7.123108406e-20
-2.562997419e-20
-6.498017116e-20
-1.517416038e-20
-5.775202854e-20
-7.897902241e-21
-5.05155938e-20
-2.967205408e-21
-4.376249299e-20
2.768074922e-22
-3.770359097e-20
2.331095249e-21
-3.239291189e-20
3.559632475e-21
-2.78028707e-20
4.223816892e-21
-2.386816408e-20
4.50880575e-21
-2.051026136e-20
4.544388618e-21
-1.765030287e-20
4.420741908e-21
-1.521530271e-20
4.199979169e-21
-1.314062537e-20
3.92446807e-21
-1.137048588e-20
3.622752151e-21
-9.857475875e-21
3.313737631e-21
-8.561672167e-21
3.009640734e-21
-7.449624684e-21
2.718056843e-21
-6.49337275e-21
2.443410483e-21
-5.669556452e-21
2.187969851e-21
-4.958645922e-21
1.952555415e-21
-4.344288971e-21
1.737033634e-21
-3.812767151e-21
1.540659691e-21
-3.352546421e-21
1.362314079e-21
-2.953908017e-21
1.200664532e-21
-2.608646136e-21
1.054275464e-21
-2.309820676e-21
9.216804993e-22
-2.051555068e-21
8.01429085e-22
-1.828870913e-21
6.921149648e-22
-1.637552663e-21
5.92391978e-22
-1.474036848e-21
5.009810611e-22
-1.335321423e-21
4.166711799e-22
-1.218891696e-21
3.383161089e-22
-1.122660006e-21
2.648284045e-22
-1.044916907e-21
1.951715053e-22
-9.842920991e-22
1.283506063e-22
-9.397237014e-22
6.340274948e-23
-9.104348353e-22
-8.959166964e-22
5.742800392e-08
1.546018809e-09
5.848782012e-08
4.506792636e-09
6.051023793e-08
8.203435615e-09
6.193235121e-08
1.199661199e-08
7.024303012e-08
1.53382097e-08
6.749151369e-08
4.27896806e-08
-2.709030048e-08
-3.459331528e-08
4.679348814e-17
-4.83056435e-07
-1.821617728e-19
-9.479596031e-20
-1.29289848e-19
-1.123917606e-19
-8.770831517e-20
-1.141351876e-19
-5.647460987e-20
-1.059896571e-19
-3.399889405e-20
-9.370699174e-20
-1.840670639e-20
-8.057259853e-20
-7.94019796e-21
-6.821882424e-20
-1.145861458e-21
-5.731026476e-20
3.091424747e-21
-4.800016033e-20
5.587624345e-21
-4.020021778e-20
6.921463247e-21
-3.372722335e-20
7.494732023e-21
-2.837665659e-20
7.582114053e-21
-2.395610688e-20
7.369129148e-21
-2.029787991e-20
6.979711811e-21
-1.726153064e-20
6.495697962e-21
-1.473197451e-20
5.970355452e-21
-1.261600789e-20
5.437677426e-21
-1.083857105e-20
4.918722853e-21
-9.339321392e-21
4.425924675e-21
-8.069709655e-21
3.966009245e-21
-6.990579135e-21
3.54197059e-21
-6.070236793e-21
3.154402597e-21
-5.282922538e-21
2.802395238e-21
-4.607602555e-21
2.484134768e-21
-4.027020908e-21
2.197302838e-21
-3.526954523e-21