/*--------------------------------*- C++ -*----------------------------------*\
  =========                 |
  \\      /  F ield         | OpenFOAM: The Open Source CFD Toolbox
   \\    /   O peration     | Website:  https://openfoam.org
    \\  /    A nd           | Version:  6
     \\/     M anipulation  |
\*---------------------------------------------------------------------------*/
FoamFile
{
    version     2.0;
    format      ascii;
    class       volScalarField;
    location    "0.17";
    object      pVap;
}
// * * * * * * * * * * * * * * * * * * * * * * * * * * * * * * * * * * * * * //

dimensions      [1 -1 -2 0 0 0 0];

internalField   nonuniform List<scalar> 
2500
(
55294.13759
55293.94013
55293.70838
55293.44817
55293.18566
55292.96417
55292.77632
55292.64486
1.077237999
1.076344672
1.075694217
1.075231749
1.074908436
1.074685056
1.07453265
1.074430262
1.074362756
1.074319213
1.074291812
1.074275031
1.074265045
1.07425928
1.074256054
1.074254304
1.074253386
1.074252919
1.074252689
1.074252579
1.074252528
1.074252506
1.074252496
1.074252492
1.07425249
1.074252489
1.074252489
1.074252489
1.074252489
1.074252489
1.074252489
1.074252489
1.074252489
1.074252489
1.074252489
1.074252489
1.074252489
1.074252489
1.074252489
1.074252489
1.074252489
1.074252489
55295.82978
55295.61848
55295.26595
55294.78765
55294.21058
55293.6315
55293.11712
55292.65745
1.083427524
1.080763906
1.07879572
1.077375706
1.076368941
1.075663663
1.07517585
1.074843814
1.074622239
1.074477778
1.074386033
1.074329407
1.074295498
1.074275822
1.074264766
1.074258754
1.074255589
1.074253977
1.074253182
1.074252802
1.074252626
1.074252547
1.074252513
1.074252499
1.074252493
1.07425249
1.074252489
1.074252489
1.074252489
1.074252489
1.074252489
1.074252489
1.074252489
1.074252489
1.074252489
1.074252489
1.074252489
1.074252489
1.074252489
1.074252489
1.074252489
1.074252489
55296.74849
55296.58805
55296.27391
55295.78562
55295.09139
55294.27325
55293.46796
55292.66158
1.090573913
1.086041195
1.082653886
1.080154344
1.078336167
1.077028607
1.076100904
1.075454401
1.075013861
1.074721453
1.074532957
1.074415192
1.074343985
1.074302348
1.074278814
1.074265957
1.074259166
1.074255698
1.074253985
1.074253165
1.074252786
1.074252615
1.074252541
1.07425251
1.074252497
1.074252492
1.07425249
1.074252489
1.074252489
1.074252489
1.074252489
1.074252489
1.074252489
1.074252489
1.074252489
1.074252489
1.074252489
1.074252489
1.074252489
1.074252489
1.074252489
1.074252489
55297.30708
55297.18683
55296.93174
55296.50275
55295.82953
55294.8804
55293.82388
55292.68271
1.099804101
1.093178724
1.088127614
1.084277041
1.081371718
1.079205448
1.077616576
1.076476728
1.075680876
1.075142052
1.074789174
1.074565964
1.074429703
1.074349445
1.074303833
1.074278813
1.07426556
1.074258777
1.074255421
1.074253815
1.074253071
1.074252737
1.074252591
1.07425253
1.074252505
1.074252495
1.074252491
1.07425249
1.074252489
1.074252489
1.074252489
1.074252489
1.074252489
1.074252489
1.074252489
1.074252489
1.074252489
1.074252489
1.074252489
1.074252489
1.074252489
1.074252489
55297.69591
55297.60374
55297.39487
55297.01899
55296.39317
55295.41901
55294.1497
55292.72002
1.112946511
1.103889554
1.096702006
1.09096946
1.086441556
1.08292194
1.08024767
1.078273535
1.076863915
1.075892964
1.07524875
1.074837277
1.074584279
1.074434486
1.074349039
1.074302046
1.074277112
1.074264338
1.074258015
1.074254987
1.074253585
1.074252956
1.074252682
1.074252566
1.074252519
1.0742525
1.074252493
1.07425249
1.074252489
1.074252489
1.074252489
1.074252489
1.074252489
1.074252489
1.074252489
1.074252489
1.074252489
1.074252489
1.074252489
1.074252489
1.074252489
1.074252489
55298.00267
55297.9315
55297.76175
55297.43446
55296.85278
55295.89078
55294.46462
55292.77064
1.133347777
1.121220562
1.111005509
1.102388227
1.095232734
1.089438816
1.084895971
1.081463314
1.078970343
1.077232189
1.076068983
1.075321541
1.074860078
1.074586112
1.074429566
1.07434339
1.074297646
1.074274211
1.074262613
1.074257064
1.074254494
1.074253342
1.074252841
1.07425263
1.074252544
1.07425251
1.074252497
1.074252492
1.07425249
1.074252489
1.074252489
1.074252489
1.074252489
1.074252489
1.074252489
1.074252489
1.074252489
1.074252489
1.074252489
1.074252489
1.074252489
1.074252489
55298.27444
55298.21685
55298.08379
55297.81194
55297.28784
55296.35805
55294.86614
55292.84091
1.167145454
1.150640583
1.135702182
1.12231712
1.110669799
1.100915336
1.093088308
1.087082318
1.082676351
1.079584515
1.077507039
1.076168922
1.075341733
1.074850399
1.07456966
1.074415183
1.074333241
1.074291296
1.074270558
1.074260645
1.074256061
1.074254007
1.074253116
1.07425274
1.074252587
1.074252526
1.074252503
1.074252494
1.074252491
1.074252489
1.074252489
1.074252489
1.074252489
1.074252489
1.074252489
1.074252489
1.074252489
1.074252489
1.074252489
1.074252489
1.074252489
1.074252489
55298.54166
55298.48998
55298.3897
55298.1813
55297.7312
55296.85459
55295.42384
55297.25247
1.225435267
1.20202353
1.179090942
1.157373364
1.137775005
1.120993828
1.107357866
1.096824727
1.089073596
1.083628482
1.079970082
1.077615412
1.076161426
1.075298926
1.074806813
1.074536433
1.074393226
1.074320031
1.074283896
1.074266648
1.074258681
1.074255118
1.074253573
1.074252923
1.074252658
1.074252553
1.074252513
1.074252497
1.074252492
1.07425249
1.074252489
1.074252489
1.074252489
1.074252489
1.074252489
1.074252489
1.074252489
1.074252489
1.074252489
1.074252489
1.074252489
1.074252489
55298.82269
55298.7757
55298.69861
55298.55799
55298.19785
55297.39334
55295.84595
60348.75343
1.329879137
1.293774432
1.256201078
1.219217924
1.185158284
1.155754843
1.131832314
1.113393562
1.099873337
1.090412561
1.084080011
1.080018129
1.07751768
1.076038527
1.075196695
1.074735232
1.074491338
1.074366927
1.074305619
1.074276406
1.074262935
1.074256918
1.074254313
1.074253219
1.074252773
1.074252597
1.074252529
1.074252503
1.074252494
1.074252491
1.074252489
1.074252489
1.074252489
1.074252489
1.074252489
1.074252489
1.074252489
1.074252489
1.074252489
1.074252489
1.074252489
1.074252489
55299.12116
55299.08324
55299.02333
55298.94787
55298.69859
55298.00826
55296.60144
70762.1498
1.523987187
1.461667798
1.395257101
1.328916949
1.26776098
1.215347909
1.173162012
1.14101298
1.117683391
1.101502794
1.090751286
1.083895863
1.079696179
1.077221804
1.07581834
1.075051267
1.074646898
1.074441107
1.074339907
1.074291778
1.074269623
1.074259744
1.074255473
1.074253682
1.074252953
1.074252664
1.074252554
1.074252512
1.074252497
1.074252492
1.07425249
1.074252489
1.074252489
1.074252489
1.074252489
1.074252489
1.074252489
1.074252489
1.074252489
1.074252489
1.074252489
1.074252489
55299.43313
55299.40278
55299.37579
55299.34319
55299.21839
55298.71274
55297.35163
65168.584
1.894424522
1.779402534
1.652411499
1.526294819
1.412301855
1.316955859
1.242052501
1.186191809
1.146379677
1.119161389
1.101276428
1.089969988
1.083089331
1.079056424
1.076778528
1.075537845
1.074885737
1.074554718
1.074392307
1.074315225
1.074279807
1.07426404
1.074257234
1.074254384
1.074253225
1.074252767
1.074252591
1.074252526
1.074252502
1.074252493
1.07425249
1.074252489
1.074252489
1.074252489
1.074252489
1.074252489
1.074252489
1.074252489
1.074252489
1.074252489
1.074252489
1.074252489
55299.76044
55299.73765
55299.72054
55299.72897
55299.71097
55299.3891
55298.22465
60572.10607
2.658535306
2.416867025
2.149230852
1.89181487
1.668943339
1.490561638
1.355944268
1.258907823
1.191608853
1.146553403
1.117409024
1.099197253
1.088209064
1.081810059
1.078213664
1.07626259
1.075240439
1.074723014
1.074469755
1.074349809
1.0742948
1.074270354
1.074259819
1.074255413
1.074253623
1.074252917
1.074252646
1.074252545
1.074252509
1.074252496
1.074252491
1.07425249
1.074252489
1.074252489
1.074252489
1.074252489
1.074252489
1.074252489
1.074252489
1.074252489
1.074252489
1.074252489
55300.10341
55300.09036
55300.08707
55300.1307
55300.18451
55300.05991
55299.16082
58961.76518
4.405921022
3.811513552
3.17587585
2.601669437
2.137938682
1.790823517
1.543946162
1.374527089
1.261483876
1.187976448
1.141428654
1.112782088
1.095685183
1.085806686
1.080286915
1.077305698
1.075749388
1.074963867
1.07458034
1.074399092
1.074316128
1.074279321
1.074263484
1.074256869
1.074254187
1.074253129
1.074252724
1.074252573
1.074252518
1.074252499
1.074252492
1.07425249
1.074252489
1.074252489
1.074252489
1.074252489
1.074252489
1.074252489
1.074252489
1.074252489
1.074252489
1.074252489
55300.45985
55300.45685
55300.47091
55300.53263
55300.65085
55300.73686
55300.18954
57792.45501
8.965837445
7.224457153
5.496254245
4.074860046
3.033414339
2.322448026
1.856196928
1.556997748
1.367561808
1.249102215
1.176165536
1.132152586
1.106240099
1.09140937
1.083178179
1.078754556
1.076454047
1.075296449
1.074732695
1.074466854
1.074345401
1.07429161
1.074268499
1.07425886
1.074254956
1.074253419
1.07425283
1.074252611
1.074252531
1.074252503
1.074252494
1.07425249
1.074252489
1.074252489
1.074252489
1.074252489
1.074252489
1.074252489
1.074252489
1.074252489
1.074252489
1.074252489
55300.82631
55300.83341
55300.86932
55300.96243
55301.156
55301.40833
55301.2889
57130.69277
22.67299824
16.65684988
11.2955584
7.380709697
4.839964537
3.295133863
2.38166782
1.844125374
1.52618829
1.337196024
1.224952295
1.158881408
1.120630547
1.098985094
1.087064813
1.080693815
1.077394068
1.075738919
1.074934928
1.074556623
1.074384114
1.074307836
1.074275112
1.074261482
1.074255968
1.074253799
1.074252969
1.074252661
1.074252549
1.074252509
1.074252496
1.074252491
1.074252489
1.074252489
1.074252489
1.074252489
1.074252489
1.074252489
1.074252489
1.074252489
1.074252489
1.074252489
55301.1982
55301.21573
55301.27539
55301.40874
55301.65671
55302.06075
55302.41029
56801.59555
68.71387054
45.42890394
27.11128003
15.36316754
8.69391303
5.140490672
3.280954858
2.295834312
1.760169894
1.461218449
1.291452206
1.19453102
1.139548834
1.108849143
1.092092364
1.083190692
1.078600184
1.076305089
1.075193118
1.074671012
1.074433362
1.074328447
1.074283501
1.074264804
1.074257248
1.074254279
1.074253145
1.074252723
1.07425257
1.074252517
1.074252498
1.074252492
1.07425249
1.074252489
1.074252489
1.074252489
1.074252489
1.074252489
1.074252489
1.074252489
1.074252489
1.074252489
55301.57025
55301.59915
55301.6854
55301.86948
55302.19638
55302.7582
55303.49562
56697.9271
228.400802
136.3861773
72.10326679
35.52013243
17.25336569
8.744900701
4.841907854
3.005580339
2.100331322
1.631583093
1.379285842
1.240402953
1.163480965
1.121190304
1.098336759
1.086276461
1.080085414
1.077000371
1.075509489
1.074810919
1.0744935
1.074353581
1.074293718
1.074268845
1.074258804
1.074254863
1.074253358
1.074252799
1.074252597
1.074252525
1.074252501
1.074252493
1.07425249
1.074252489
1.074252489
1.074252489
1.074252489
1.074252489
1.074252489
1.074252489
1.074252489
1.074252489
55301.93629
55301.97775
55302.09414
55302.33488
55302.75589
55303.43458
55304.48165
56705.19711
741.3009729
408.7644842
196.5603447
86.11084273
36.39041956
15.84759555
7.558456228
4.111993715
2.58560982
1.859139577
1.491350847
1.297177844
1.192527748
1.135983818
1.105762467
1.089926638
1.081835844
1.077817572
1.075880541
1.074974719
1.074563803
1.074382924
1.074305632
1.074273553
1.074260615
1.074255542
1.074253606
1.074252887
1.074252627
1.074252536
1.074252504
1.074252494
1.07425249
1.074252489
1.074252489
1.074252489
1.074252489
1.074252489
1.074252489
1.074252489
1.074252489
1.074252489
55302.28901
55302.34432
55302.49487
55302.79915
55303.33025
55304.15747
55305.43949
57166.24691
2120.634384
1116.298758
506.9428246
204.7728991
77.50585645
29.51927399
12.19969861
5.800263635
3.258868006
2.152745895
1.628735867
1.364455558
1.22620897
1.152905982
1.114184453
1.094043843
1.083802923
1.078733474
1.076295563
1.075157627
1.074642198
1.074415606
1.074318887
1.074278786
1.074262626
1.074256294
1.074253881
1.074252985
1.074252661
1.074252547
1.074252508
1.074252495
1.074252491
1.074252489
1.074252489
1.074252489
1.074252489
1.074252489
1.074252489
1.074252489
1.074252489
1.074252489
55302.61988
55302.69051
55302.87973
55303.25761
55303.9166
55304.93993
55306.42884
57946.16763
5038.038582
2616.762617
1164.060305
450.4963595
158.2872177
54.23150485
19.76193976
8.270952306
4.154263211
2.514836381
1.789231447
1.44025401
1.263290023
1.171271512
1.123244394
1.098448375
1.085899609
1.079707238
1.076735964
1.075351427
1.074725157
1.074450152
1.074332886
1.074284307
1.074264747
1.074257088
1.07425417
1.074253088
1.074252697
1.074252559
1.074252512
1.074252496
1.074252491
1.07425249
1.074252489
1.074252489
1.074252489
1.074252489
1.074252489
1.074252489
1.074252489
1.074252489
55302.91929
55303.00665
55303.23901
55303.70149
55304.5046
55305.75339
55307.35769
59285.81294
9814.127839
5149.507438
2304.597843
881.3745144
297.2178392
94.50966064
31.12022312
11.64796399
5.273076003
2.935115532
1.965701666
1.520603547
1.301691226
1.190019497
1.132412378
1.102881401
1.088002551
1.080681601
1.077175874
1.07554475
1.074807819
1.074484542
1.074346809
1.074289795
1.074266853
1.074257875
1.074254457
1.07425319
1.074252732
1.074252571
1.074252516
1.074252498
1.074252492
1.07425249
1.074252489
1.074252489
1.074252489
1.074252489
1.074252489
1.074252489
1.074252489
1.074252489
55303.17705
55303.28218
55303.56142
55304.11945
55305.08211
55306.54312
55308.26909
62620.14951
15949.40907
8550.979264
3904.695669
1504.462723
499.1485099
151.4624701
46.27403485
15.82182224
6.551770187
3.384241338
2.144981764
1.599456112
1.33855172
1.207772291
1.141022754
1.107024066
1.089961579
1.08158738
1.077584205
1.075723988
1.074884387
1.074516371
1.074359687
1.074294867
1.074268799
1.074258603
1.074254722
1.074253284
1.074252765
1.074252582
1.07425252
1.074252499
1.074252492
1.07425249
1.074252489
1.074252489
1.074252489
1.074252489
1.074252489
1.074252489
1.074252489
1.074252489
55303.3821
55303.50339
55303.82688
55304.47859
55305.60371
55307.27385
55309.18279
70176.11381
22227.88603
12199.26038
5702.950373
2231.527556
739.1425293
218.5518757
63.47394709
20.2965524
7.839008337
3.811571921
2.308294356
1.669150989
1.370505569
1.222980024
1.148346318
1.110532518
1.091616277
1.082351111
1.077928076
1.075874789
1.074948758
1.074543114
1.074370501
1.074299124
1.074270431
1.074259212
1.074254944
1.074253363
1.074252792
1.074252592
1.074252523
1.0742525
1.074252492
1.07425249
1.074252489
1.074252489
1.074252489
1.074252489
1.074252489
1.074252489
1.074252489
1.074252489
55303.52496
55303.65897
55304.01881
55304.74933
55306.01318
55307.84729
55309.95658
80193.19981
27253.97781
15249.85135
7269.842442
2887.336426
960.2700243
280.443123
79.00971417
24.18576038
8.908024334
4.151733798
2.434019108
1.721561887
1.39417393
1.234140395
1.153691088
1.113084534
1.092817443
1.082904782
1.078177137
1.075983937
1.074995324
1.07456245
1.074378316
1.0743022
1.07427161
1.074259653
1.074255104
1.07425342
1.074252812
1.074252598
1.074252525
1.0742525
1.074252492
1.07425249
1.074252489
1.074252489
1.074252489
1.074252489
1.074252489
1.074252489
1.074252489
1.074252489
55303.59848
55303.73979
55304.12079
55304.89628
55306.2284
55308.09157
55310.09504
78520.27325
31213.97156
16963.58905
8179.924046
3277.823018
1094.107317
318.0547825
88.35541771
26.47473433
9.520217169
4.341496754
2.502697608
1.74976952
1.406790108
1.240054266
1.156513322
1.114429274
1.093449568
1.083195918
1.078308027
1.076041274
1.075019777
1.074572601
1.074382419
1.074303814
1.074272229
1.074259884
1.074255188
1.074253449
1.074252822
1.074252602
1.074252526
1.074252501
1.074252493
1.07425249
1.074252489
1.074252489
1.074252489
1.074252489
1.074252489
1.074252489
1.074252489
1.074252489
55303.59845
55303.73975
55304.12071
55304.89603
55306.22725
55308.08527
55310.06653
76712.66714
31281.02068
16964.53566
8180.060912
3277.832498
1094.107744
318.0547958
88.35541797
26.47473433
9.520217168
4.341496755
2.502697608
1.74976952
1.406790108
1.240054266
1.156513322
1.114429274
1.093449568
1.083195918
1.078308027
1.076041274
1.075019777
1.074572601
1.074382419
1.074303814
1.074272229
1.074259884
1.074255188
1.074253449
1.074252822
1.074252602
1.074252526
1.074252501
1.074252493
1.07425249
1.074252489
1.074252489
1.074252489
1.074252489
1.074252489
1.074252489
1.074252489
1.074252489
55303.5249
55303.65888
55304.0186
55304.74845
55306.00771
55307.82034
55309.87371
79567.3696
27237.27119
15249.98609
7269.874065
2887.339151
960.2701576
280.4431267
79.00971413
24.18576037
8.908024336
4.151733799
2.434019109
1.721561888
1.394173931
1.234140395
1.153691089
1.113084534
1.092817443
1.082904782
1.078177137
1.075983937
1.074995324
1.07456245
1.074378316
1.0743022
1.07427161
1.074259653
1.074255104
1.07425342
1.074252812
1.074252598
1.074252525
1.0742525
1.074252492
1.07425249
1.074252489
1.074252489
1.074252489
1.074252489
1.074252489
1.074252489
1.074252489
1.074252489
55303.38202
55303.50326
55303.82664
55304.47799
55305.601
55307.26206
55309.15769
70276.58593
22228.39111
12199.30329
5702.955361
2231.527925
739.1425444
218.5518755
63.47394704
20.29655241
7.839008348
3.811571927
2.308294359
1.66915099
1.370505569
1.222980024
1.148346318
1.110532518
1.091616277
1.082351111
1.077928076
1.075874789
1.074948758
1.074543114
1.074370501
1.074299124
1.074270431
1.074259212
1.074254944
1.074253363
1.074252792
1.074252592
1.074252523
1.0742525
1.074252492
1.07425249
1.074252489
1.074252489
1.074252489
1.074252489
1.074252489
1.074252489
1.074252489
1.074252489
55303.17694
55303.28203
55303.56118
55304.11911
55305.08179
55306.54334
55308.27502
62973.99232
15951.65636
8551.030617
3904.696652
1504.462767
499.1485108
151.4624703
46.27403499
15.8218223
6.551770212
3.384241348
2.144981769
1.599456114
1.338551721
1.207772292
1.141022754
1.107024066
1.089961579
1.08158738
1.077584205
1.075723988
1.074884387
1.074516371
1.074359687
1.074294867
1.074268799
1.074258603
1.074254722
1.074253284
1.074252765
1.074252582
1.07425252
1.074252499
1.074252492
1.07425249
1.074252489
1.074252489
1.074252489
1.074252489
1.074252489
1.074252489
1.074252489
1.074252489
55302.9192
55303.00653
55303.23883
55303.70127
55304.50469
55305.75521
55307.36437
59578.23854
9815.266825
5149.51557
2304.598064
881.3745401
297.2178421
94.50966155
31.12022344
11.6479641
5.273076041
2.935115547
1.965701672
1.52060355
1.301691227
1.190019497
1.132412378
1.102881401
1.088002551
1.080681601
1.077175874
1.07554475
1.074807819
1.074484542
1.074346809
1.074289795
1.074266853
1.074257875
1.074254457
1.07425319
1.074252732
1.074252571
1.074252516
1.074252498
1.074252492
1.07425249
1.074252489
1.074252489
1.074252489
1.074252489
1.074252489
1.074252489
1.074252489
1.074252489
55302.6198
55302.69042
55302.87962
55303.25747
55303.91638
55304.93967
55306.43035
58050.80101
5038.1053
2616.758697
1164.060505
450.4963841
158.2872217
54.23150605
19.76194014
8.270952433
4.154263257
2.5148364
1.789231455
1.440254013
1.263290025
1.171271513
1.123244394
1.098448375
1.085899609
1.079707238
1.076735964
1.075351427
1.074725157
1.074450152
1.074332886
1.074284307
1.074264747
1.074257088
1.07425417
1.074253088
1.074252697
1.074252559
1.074252512
1.074252496
1.074252491
1.07425249
1.074252489
1.074252489
1.074252489
1.074252489
1.074252489
1.074252489
1.074252489
1.074252489
55302.28895
55302.34426
55302.49481
55302.79911
55303.33019
55304.15708
55305.43835
57101.7454
2120.480154
1116.297745
506.9430014
204.7729161
77.50585976
29.51927503
12.19969895
5.800263756
3.258868052
2.152745915
1.628735877
1.364455562
1.226208972
1.152905983
1.114184453
1.094043844
1.083802923
1.078733474
1.076295563
1.075157627
1.074642198
1.074415606
1.074318887
1.074278786
1.074262626
1.074256294
1.074253881
1.074252985
1.074252661
1.074252547
1.074252508
1.074252495
1.074252491
1.074252489
1.074252489
1.074252489
1.074252489
1.074252489
1.074252489
1.074252489
1.074252489
1.074252489
55301.93624
55301.9777
55302.09411
55302.33491
55302.75604
55303.43472
55304.48058
56654.38913
741.2530668
408.7651145
196.5604359
86.11085138
36.3904216
15.84759626
7.558456487
4.111993815
2.585609862
1.859139596
1.491350856
1.297177848
1.19252775
1.135983819
1.105762468
1.089926638
1.081835844
1.077817572
1.075880541
1.074974719
1.074563803
1.074382924
1.074305632
1.074273553
1.074260615
1.074255542
1.074253606
1.074252887
1.074252627
1.074252536
1.074252504
1.074252494
1.07425249
1.074252489
1.074252489
1.074252489
1.074252489
1.074252489
1.074252489
1.074252489
1.074252489
1.074252489
55301.5702
55301.59911
55301.68538
55301.86951
55302.19653
55302.75844
55303.49474
56664.92139
228.3950767
136.3865913
72.10330146
35.52013614
17.25336677
8.744901129
4.84190803
3.005580414
2.100331356
1.631583109
1.37928585
1.240402957
1.163480967
1.121190305
1.098336759
1.086276461
1.080085414
1.077000371
1.075509489
1.074810919
1.0744935
1.074353581
1.074293718
1.074268845
1.074258804
1.074254863
1.074253358
1.074252799
1.074252597
1.074252525
1.074252501
1.074252493
1.07425249
1.074252489
1.074252489
1.074252489
1.074252489
1.074252489
1.074252489
1.074252489
1.074252489
1.074252489
55301.19815
55301.21568
55301.27534
55301.40871
55301.65672
55302.06079
55302.41045
56790.4267
68.71475063
45.42906152
27.11129154
15.36316902
8.693913566
5.140490917
3.280954972
2.295834366
1.76016992
1.461218463
1.291452213
1.194531024
1.139548836
1.108849144
1.092092364
1.083190692
1.078600184
1.076305089
1.075193118
1.074671012
1.074433362
1.074328447
1.074283501
1.074264804
1.074257248
1.074254279
1.074253145
1.074252723
1.07425257
1.074252517
1.074252498
1.074252492
1.07425249
1.074252489
1.074252489
1.074252489
1.074252489
1.074252489
1.074252489
1.074252489
1.074252489
1.074252489
55300.82624
55300.83334
55300.86925
55300.96234
55301.15592
55301.40843
55301.28966
57136.74721
22.67361573
16.65689778
11.29556209
7.3807103
4.839964803
3.295134001
2.381667891
1.844125411
1.52618831
1.337196035
1.224952301
1.158881411
1.120630549
1.098985095
1.087064813
1.080693816
1.077394068
1.075738919
1.074934928
1.074556623
1.074384114
1.074307836
1.074275112
1.074261482
1.074255968
1.074253799
1.074252969
1.074252661
1.074252549
1.074252509
1.074252496
1.074252491
1.074252489
1.074252489
1.074252489
1.074252489
1.074252489
1.074252489
1.074252489
1.074252489
1.074252489
1.074252489
55300.45977
55300.45675
55300.47078
55300.53248
55300.65065
55300.73675
55300.19007
57801.08086
8.966014422
7.224470627
5.496255427
4.074860298
3.033414474
2.322448104
1.856196972
1.556997773
1.367561821
1.249102223
1.17616554
1.132152588
1.106240101
1.09140937
1.083178179
1.078754556
1.076454047
1.075296449
1.074732695
1.074466854
1.074345401
1.07429161
1.074268499
1.07425886
1.074254956
1.074253419
1.07425283
1.074252611
1.074252531
1.074252503
1.074252494
1.07425249
1.074252489
1.074252489
1.074252489
1.074252489
1.074252489
1.074252489
1.074252489
1.074252489
1.074252489
1.074252489
55300.10331
55300.09023
55300.0869
55300.13048
55300.18425
55300.05961
55299.16085
58964.46997
4.405961323
3.811517202
3.175876161
2.601669535
2.137938751
1.790823561
1.543946189
1.374527104
1.261483885
1.187976453
1.141428657
1.11278209
1.095685184
1.085806686
1.080286915
1.077305698
1.075749388
1.074963867
1.07458034
1.074399092
1.074316128
1.074279321
1.074263484
1.074256869
1.074254187
1.074253129
1.074252724
1.074252573
1.074252518
1.074252499
1.074252492
1.07425249
1.074252489
1.074252489
1.074252489
1.074252489
1.074252489
1.074252489
1.074252489
1.074252489
1.074252489
1.074252489
55299.76032
55299.73749
55299.72034
55299.72869
55299.71061
55299.38869
55298.22442
60574.16689
2.658545414
2.416867503
2.149230817
1.891814894
1.668943373
1.490561664
1.355944284
1.258907833
1.191608859
1.146553406
1.117409026
1.099197254
1.088209064
1.081810059
1.078213664
1.07626259
1.075240439
1.074723014
1.074469755
1.074349809
1.0742948
1.074270354
1.074259819
1.074255413
1.074253623
1.074252917
1.074252646
1.074252545
1.074252509
1.074252496
1.074252491
1.07425249
1.074252489
1.074252489
1.074252489
1.074252489
1.074252489
1.074252489
1.074252489
1.074252489
1.074252489
1.074252489
55299.43299
55299.40259
55299.37552
55299.34281
55299.21787
55298.71215
55297.35122
65171.40101
1.894424704
1.779401839
1.652411326
1.526294808
1.41230187
1.316955872
1.24205251
1.186191814
1.146379681
1.119161391
1.10127643
1.089969989
1.083089332
1.079056424
1.076778528
1.075537845
1.074885737
1.074554718
1.074392307
1.074315225
1.074279807
1.07426404
1.074257234
1.074254384
1.074253225
1.074252767
1.074252591
1.074252526
1.074252502
1.074252493
1.07425249
1.074252489
1.074252489
1.074252489
1.074252489
1.074252489
1.074252489
1.074252489
1.074252489
1.074252489
1.074252489
1.074252489
55299.12101
55299.08304
55299.02303
55298.94739
55298.69789
55298.00743
55296.60092
70761.06428
1.523983412
1.461666783
1.395256899
1.328916925
1.267760986
1.215347917
1.173162017
1.141012984
1.117683393
1.101502795
1.090751286
1.083895863
1.079696179
1.077221804
1.07581834
1.075051267
1.074646898
1.074441107
1.074339907
1.074291778
1.074269623
1.074259744
1.074255473
1.074253682
1.074252953
1.074252664
1.074252554
1.074252512
1.074252497
1.074252492
1.07425249
1.074252489
1.074252489
1.074252489
1.074252489
1.074252489
1.074252489
1.074252489
1.074252489
1.074252489
1.074252489
1.074252489
55298.82253
55298.77548
55298.6983
55298.55745
55298.19705
55297.39237
55295.8451
60349.59494
1.329875459
1.293773561
1.256200909
1.219217901
1.185158286
1.155754846
1.131832317
1.113393563
1.099873338
1.090412562
1.084080011
1.08001813
1.07751768
1.076038527
1.075196695
1.074735232
1.074491338
1.074366927
1.074305619
1.074276406
1.074262935
1.074256918
1.074254313
1.074253219
1.074252773
1.074252597
1.074252529
1.074252503
1.074252494
1.074252491
1.074252489
1.074252489
1.074252489
1.074252489
1.074252489
1.074252489
1.074252489
1.074252489
1.074252489
1.074252489
1.074252489
1.074252489
55298.54152
55298.48979
55298.3894
55298.18079
55297.73043
55296.85366
55295.37468
55297.31404
1.225432243
1.20202285
1.179090813
1.157373346
1.137775004
1.120993829
1.107357867
1.096824728
1.089073597
1.083628482
1.079970082
1.077615412
1.076161427
1.075298926
1.074806813
1.074536433
1.074393226
1.074320031
1.074283896
1.074266648
1.074258681
1.074255118
1.074253573
1.074252923
1.074252658
1.074252553
1.074252513
1.074252497
1.074252492
1.07425249
1.074252489
1.074252489
1.074252489
1.074252489
1.074252489
1.074252489
1.074252489
1.074252489
1.074252489
1.074252489
1.074252489
1.074252489
55298.27433
55298.21668
55298.08353
55297.81151
55297.28719
55296.35637
55294.85541
55292.83531
1.167143104
1.15064009
1.135702094
1.122317107
1.110669797
1.100915336
1.093088308
1.087082318
1.082676351
1.079584515
1.07750704
1.076168922
1.075341733
1.074850399
1.07456966
1.074415183
1.074333241
1.074291296
1.074270558
1.074260645
1.074256061
1.074254007
1.074253116
1.07425274
1.074252587
1.074252526
1.074252503
1.074252494
1.074252491
1.074252489
1.074252489
1.074252489
1.074252489
1.074252489
1.074252489
1.074252489
1.074252489
1.074252489
1.074252489
1.074252489
1.074252489
1.074252489
55298.0026
55297.93138
55297.76154
55297.43411
55296.8522
55295.88976
55294.4641
55292.75995
1.13334625
1.121220253
1.111005457
1.102388219
1.095232733
1.089438816
1.08489597
1.081463314
1.078970343
1.077232189
1.076068983
1.075321541
1.074860078
1.074586112
1.074429566
1.07434339
1.074297646
1.074274211
1.074262613
1.074257064
1.074254494
1.074253342
1.074252841
1.07425263
1.074252544
1.07425251
1.074252497
1.074252492
1.07425249
1.074252489
1.074252489
1.074252489
1.074252489
1.074252489
1.074252489
1.074252489
1.074252489
1.074252489
1.074252489
1.074252489
1.074252489
1.074252489
55297.69589
55297.60368
55297.39472
55297.01871
55296.39271
55295.41842
55294.14941
55292.71125
1.112945592
1.103889375
1.096701978
1.090969456
1.086441555
1.082921939
1.08024767
1.078273534
1.076863915
1.075892964
1.07524875
1.074837277
1.074584279
1.074434486
1.074349039
1.074302046
1.074277112
1.074264338
1.074258015
1.074254987
1.074253585
1.074252956
1.074252682
1.074252566
1.074252519
1.0742525
1.074252493
1.07425249
1.074252489
1.074252489
1.074252489
1.074252489
1.074252489
1.074252489
1.074252489
1.074252489
1.074252489
1.074252489
1.074252489
1.074252489
1.074252489
1.074252489
55297.30713
55297.18683
55296.93164
55296.50251
55295.82911
55294.87991
55293.82359
55292.68527
1.099803436
1.093178615
1.088127599
1.084277038
1.081371717
1.079205448
1.077616575
1.076476727
1.075680876
1.075142051
1.074789174
1.074565964
1.074429703
1.074349445
1.074303833
1.074278813
1.07426556
1.074258777
1.074255421
1.074253815
1.074253071
1.074252737
1.074252591
1.07425253
1.074252505
1.074252495
1.074252491
1.07425249
1.074252489
1.074252489
1.074252489
1.074252489
1.074252489
1.074252489
1.074252489
1.074252489
1.074252489
1.074252489
1.074252489
1.074252489
1.074252489
1.074252489
55296.74863
55296.58813
55296.27387
55295.7854
55295.091
55294.27283
55293.46772
55292.66692
1.090573476
1.086041137
1.082653879
1.080154342
1.078336166
1.077028607
1.076100904
1.0754544
1.075013861
1.074721453
1.074532957
1.074415192
1.074343985
1.074302348
1.074278814
1.074265957
1.074259166
1.074255698
1.074253985
1.074253165
1.074252786
1.074252615
1.074252541
1.07425251
1.074252497
1.074252492
1.07425249
1.074252489
1.074252489
1.074252489
1.074252489
1.074252489
1.074252489
1.074252489
1.074252489
1.074252489
1.074252489
1.074252489
1.074252489
1.074252489
1.074252489
1.074252489
55295.83005
55295.61867
55295.26598
55294.78751
55294.21034
55293.63128
55293.11699
55292.64493
1.083427332
1.080763889
1.078795719
1.077375705
1.076368941
1.075663663
1.07517585
1.074843814
1.074622239
1.074477778
1.074386033
1.074329407
1.074295498
1.074275822
1.074264766
1.074258754
1.074255589
1.074253977
1.074253182
1.074252802
1.074252626
1.074252547
1.074252513
1.074252499
1.074252493
1.07425249
1.074252489
1.074252489
1.074252489
1.074252489
1.074252489
1.074252489
1.074252489
1.074252489
1.074252489
1.074252489
1.074252489
1.074252489
1.074252489
1.074252489
1.074252489
1.074252489
55294.1379
55293.94034
55293.70845
55293.44811
55293.18558
55292.96411
55292.77629
55292.60086
1.077237899
1.076344673
1.075694218