/*--------------------------------*- C++ -*----------------------------------*\
  =========                 |
  \\      /  F ield         | OpenFOAM: The Open Source CFD Toolbox
   \\    /   O peration     | Website:  https://openfoam.org
    \\  /    A nd           | Version:  6
     \\/     M anipulation  |
\*---------------------------------------------------------------------------*/
FoamFile
{
    version     2.0;
    format      ascii;
    class       volScalarField;
    location    "0.17";
    object      Temperature;
}
// * * * * * * * * * * * * * * * * * * * * * * * * * * * * * * * * * * * * * //

dimensions      [0 0 0 1 0 0 0];

internalField   nonuniform List<scalar> 
2500
(
322.5060258
319.4585758
315.9447917
312.0826259
308.278084
305.1401144
302.5288307
300.128545
300.0692628
300.048558
300.0334734
300.0227424
300.0152371
300.01005
300.0065101
300.0041315
300.0025629
300.001551
300.0009142
300.0005241
300.000292
300.0001579
300.0000829
300.0000422
300.0000209
300.00001
300.0000047
300.0000021
300.0000009
300.0000004
300.0000002
300.0000001
300
300
300
300
300
300
300
300
300
300
300
300
300
300
300
300
300
300
351.3496821
347.4858088
341.210088
333.0359752
323.6706184
314.787567
307.2968165
300.3834139
300.2123609
300.1508704
300.1053575
300.0724741
300.0491358
300.0327739
300.0214507
300.0137401
300.0085931
300.0052365
300.0031044
300.0017883
300.001
300.0005426
300.0002855
300.0001457
300.0000721
300.0000346
300.0000161
300.0000073
300.0000032
300.0000014
300.0000006
300.0000002
300.0000001
300
300
300
300
300
300
300
300
300
300
300
300
300
300
300
300
300
369.2664971
366.0171383
359.8060198
350.5487532
338.1676413
324.6474609
312.3608444
300.6669101
300.3767463
300.2725993
300.1945421
300.136807
300.0947358
300.0644402
300.042925
300.0279208
300.0176914
300.0108991
300.0065193
300.0037825
300.0021273
300.0011594
300.0006122
300.0003132
300.0001553
300.0000747
300.0000348
300.0000157
300.0000069
300.0000029
300.0000012
300.0000005
300.0000002
300.0000001
300
300
300
300
300
300
300
300
300
300
300
300
300
300
300
300
381.0739945
378.4727707
373.0621843
364.2967377
351.3374371
334.5555246
317.668802
301.003521
300.5877437
300.4364621
300.3206217
300.232006
300.1649633
300.1148723
300.0780759
300.0516482
300.0331808
300.02067
300.0124732
300.0072868
300.0041199
300.0022543
300.0011939
300.0006122
300.000304
300.0001463
300.0000682
300.0000309
300.0000135
300.0000058
300.0000024
300.000001
300.0000004
300.0000001
300.0000001
300
300
300
300
300
300
300
300
300
300
300
300
300
300
300
389.7459506
387.6551175
382.9942013
374.8776892
362.0991594
343.859423
322.6821716
301.4141391
300.8856307
300.6806978
300.517063
300.3859015
300.2818859
300.2007759
300.138995
300.0933032
300.0606321
300.0381056
300.023149
300.0135913
300.0077127
300.0042312
300.0022449
300.0011524
300.0005727
300.0002756
300.0001285
300.0000581
300.0000255
300.0000109
300.0000045
300.0000018
300.0000007
300.0000003
300.0000001
300
300
300
300
300
300
300
300
300
300
300
300
300
300
300
396.8713248
395.193361
391.2479642
383.8550282
371.3806763
352.4394809
327.6849323
301.9839869
301.3422972
301.0717371
300.841923
300.6466667
300.4835501
300.3508098
300.2463125
300.1671048
300.1094447
300.0691743
300.0421923
300.0248403
300.0141214
300.0077555
300.004117
300.0021137
300.0010501
300.0005052
300.0002355
300.0001064
300.0000467
300.0000199
300.0000082
300.0000033
300.0000013
300.0000005
300.0000002
300.0000001
300
300
300
300
300
300
300
300
300
300
300
300
300
300
403.4069088
402.0020787
398.797106
392.3995858
380.6262246
361.3756086
334.0020047
302.8721068
302.0839914
301.7241443
301.3946997
301.096411
300.8344087
300.6132041
300.4345133
300.2966638
300.1951274
300.1236648
300.0755482
300.0445127
300.0253098
300.0138969
300.0073733
300.0037827
300.0018778
300.0009025
300.0004203
300.0001897
300.0000831
300.0000353
300.0000146
300.0000059
300.0000023
300.0000009
300.0000003
300.0000001
300
300
300
300
300
300
300
300
300
300
300
300
300
300
410.049828
408.747564
406.2490272
401.1433407
390.5383961
371.4212238
341.9139055
304.2832259
303.3221575
302.8309646
302.342021
301.8716069
301.4407215
301.0668132
300.7595184
300.5199682
300.3424496
300.2171054
300.1325896
300.0780621
300.0443398
300.0243162
300.0128845
300.0066011
300.0032723
300.0015707
300.0007304
300.0003293
300.0001441
300.0000612
300.0000252
300.0000101
300.0000039
300.0000015
300.0000006
300.0000002
300.0000001
300
300
300
300
300
300
300
300
300
300
300
300
300
417.2814192
416.0562796
414.0659805
410.4754074
401.5474552
382.9426498
351.4151814
306.6940653
305.42311
304.7129272
303.9561639
303.1926697
302.4722674
301.8363265
301.3088846
300.8959519
300.589515
300.3732001
300.2275249
300.133704
300.0757982
300.0414883
300.0219422
300.0112214
300.0055531
300.002661
300.0012356
300.0005563
300.000243
300.000103
300.0000424
300.000017
300.0000066
300.0000025
300.0000009
300.0000003
300.0000001
300
300
300
300
300
300
300
300
300
300
300
300
300
425.2451646
424.2187576
422.6134042
420.6030496
414.0740923
396.9709877
361.8052493
311.1065169
308.9879669
307.886618
306.6694129
305.404528
304.1911107
303.1117616
302.2144803
301.5124292
300.9925534
300.6266276
300.38098
300.2232823
300.1262571
300.0689397
300.0363778
300.0185644
300.0091687
300.0043855
300.0020328
300.0009138
300.0003985
300.0001688
300.0000694
300.0000278
300.0000108
300.0000041
300.0000015
300.0000005
300.0000002
300.0000001
300
300
300
300
300
300
300
300
300
300
300
300
433.9025286
433.0470442
432.2965713
431.3906434
427.9275247
414.4409456
380.7781154
317.4640211
314.8562469
313.1441319
311.1441927
309.0279324
306.9864752
305.1710411
303.6665218
302.4945092
301.6307976
301.0257777
300.6214883
300.3630565
300.2046774
300.1114503
300.0586602
300.0298658
300.0147189
300.0070264
300.0032511
300.001459
300.0006354
300.0002687
300.0001104
300.0000441
300.0000171
300.0000065
300.0000024
300.0000009
300.0000003
300.0000001
300
300
300
300
300
300
300
300
300
300
300
300
443.3744837
442.7040272
442.2070834
442.4589056
441.9258207
432.6650895
401.1070009
328.0652
324.452329
321.6948352
318.3628427
314.8183824
311.4117867
308.4021979
305.9263172
304.0116183
302.6102054
301.6346508
300.9864228
300.5741418
300.3226092
300.1751398
300.091932
300.0466904
300.0229592
300.0109379
300.0050516
300.0022631
300.000984
300.0004155
300.0001705
300.000068
300.0000264
300.00001
300.0000037
300.0000013
300.0000005
300.0000002
300.0000001
300
300
300
300
300
300
300
300
300
300
300
453.7536993
453.3522885
453.2547205
454.6055292
456.2747033
452.4016439
425.1787148
345.0791881
339.8947952
335.3164015
329.7250592
323.8226056
318.215162
313.3185305
309.3330228
306.2800318
304.0640823
302.5327491
301.521696
300.8822273
300.4939843
300.2673347
300.1399305
300.0708879
300.0347784
300.0165345
300.0076221
300.0034089
300.00148
300.0006241
300.0002558
300.0001019
300.0000395
300.0000149
300.0000055
300.000002
300.0000007
300.0000002
300.0000001
300
300
300
300
300
300
300
300
300
300
300
465.0678152
464.9723491
465.4324724
467.4499316
471.3530992
474.2174616
455.4868747
371.9499417
364.2769791
356.5040094
347.1259983
337.4117454
328.3481306
320.5562057
314.2975578
309.556651
306.1480605
303.8114991
302.2794131
301.3161306
300.7342735
300.3960983
300.2067363
300.1044641
300.0511342
300.0242606
300.0111631
300.0049842
300.0021606
300.0009099
300.0003724
300.0001482
300.0000574
300.0000216
300.0000079
300.0000028
300.000001
300.0000003
300.0000001
300
300
300
300
300
300
300
300
300
300
300
477.3024593
477.5474219
478.783412
482.0110731
488.8499605
498.050316
493.0265699
413.5471208
401.9238281
388.5770435
372.9753462
357.2596385
342.9309202
330.8405403
321.2753625
314.1192039
309.0267352
305.5657382
303.3127073
301.9047975
301.0588094
300.5693275
300.296304
300.1493445
300.0729383
300.034536
300.0158624
300.007071
300.0030608
300.0012872
300.0005262
300.0002092
300.0000809
300.0000305
300.0000112
300.000004
300.0000014
300.0000005
300.0000002
300.0000001
300
300
300
300
300
300
300
300
300
300
490.3938535
491.0293514
493.2013509
498.1219006
507.5276618
523.6316578
538.2426536
476.2545608
458.55798
435.6487318
410.0907009
385.2234531
363.1487085
344.9064836
330.7101987
320.2288479
312.8499689
307.8793248
304.6673301
302.6725593
301.4802021
300.7933894
300.4117652
300.2070291
300.1008904
300.0476785
300.0218608
300.0097297
300.0042057
300.0017665
300.0007213
300.0002865
300.0001107
300.0000417
300.0000153
300.0000055
300.0000019
300.0000006
300.0000002
300.0000001
300
300
300
300
300
300
300
300
300
300
504.228695
505.3363716
508.6683354
515.9241038
529.3241147
554.04217
590.2604438
567.2404078
541.1606881
502.3185809
461.3815492
423.0815013
390.0565697
363.3633796
342.9451685
328.074075
317.7188247
310.8051433
306.3702864
303.6328701
302.0049902
301.0713832
300.5545523
300.2781636
300.1352742
300.0638096
300.029209
300.0129811
300.0056038
300.0023509
300.0009589
300.0003805
300.0001469
300.0000552
300.0000202
300.0000072
300.0000025
300.0000009
300.0000003
300.0000001
300
300
300
300
300
300
300
300
300
300
518.6235672
520.3059184
525.0850002
535.2490666
553.9938356
587.126251
646.85055
693.2798447
657.1898383
592.9119694
529.2452431
472.0994817
424.2869921
386.5065003
358.1056167
337.7002234
323.6443507
314.3416646
308.4168616
304.781318
302.6299756
301.4012692
300.7234692
300.3620895
300.1757457
300.0827578
300.0378247
300.0167873
300.007238
300.0030331
300.001236
300.00049
300.000189
300.000071
300.000026
300.0000093
300.0000032
300.0000011
300.0000004
300.0000001
300
300
300
300
300
300
300
300
300
300
533.2939817
535.6706275
542.2451225
556.0325408
581.8479762
627.2005136
713.4343973
858.9574435
812.763316
710.1280192
614.6524451
532.4434448
465.6867306
414.0988303
375.9712331
348.9362147
330.5065327
318.4104501
310.7585657
306.0893096
303.3389923
301.7742546
300.9139042
300.4564706
300.2211602
300.1039797
300.0474582
300.0210367
300.0090602
300.003793
300.0015442
300.0006116
300.0002358
300.0000885
300.0000324
300.0000115
300.000004
300.0000014
300.0000005
300.0000001
300
300
300
300
300
300
300
300
300
300
547.8307551
551.039585
559.8202992
578.2152208
613.3578382
677.2734802
798.2235731
1058.909317
1009.495958
853.1512391
716.0336372
602.5398104
512.9570124
445.1727186
395.8686823
361.3374526
338.0244625
322.8408481
313.295429
307.5002666
304.1010662
302.1739214
301.1174256
300.5571088
300.2694903
300.1265253
300.0576772
300.0255385
300.0109883
300.0045961
300.0018697
300.0007401
300.0002851
300.000107
300.0000391
300.0000139
300.0000048
300.0000016
300.0000005
300.0000002
300.0000001
300
300
300
300
300
300
300
300
300
561.6863131
565.8675397
577.2959355
601.4693977
648.6360763
738.6958714
898.6469946
1285.920294
1240.971664
1015.706964
828.2798796
678.5811915
563.418313
477.9229056
416.6258129
374.1679098
345.7503653
327.3686828
315.8762325
308.9301831
304.8708995
302.5765584
301.321983
300.6580572
300.3178857
300.1490675
300.0678812
300.0300284
300.0129093
300.0053956
300.0021935
300.0008677
300.0003341
300.0001253
300.0000458
300.0000163
300.0000057
300.0000019
300.0000006
300.0000002
300.0000001
300
300
300
300
300
300
300
300
300
574.1886651
579.4596571
593.9369287
625.1500192
687.4700528
809.9307706
1025.202526
1523.631939
1489.735987
1184.828513
942.3188928
754.4372116
613.0406937
509.7660087
436.626788
386.4417234
353.09784
331.6541403
318.3092518
310.2737988
305.5922828
302.9529794
301.5128437
300.752087
300.3628984
300.1700074
300.0773494
300.0341905
300.0146886
300.0061355
300.0024929
300.0009856
300.0003794
300.0001422
300.000052
300.0000185
300.0000064
300.0000022
300.0000007
300.0000002
300.0000001
300
300
300
300
300
300
300
300
300
584.53822
590.8517604
608.376966
647.0473904
726.794646
889.374787
1193.970096
1741.47703
1726.267096
1341.308538
1045.757821
822.2043746
656.8477787
537.6149173
453.9891147
397.0329807
359.4076799
335.3200266
320.3838464
311.4164359
306.2044009
303.2717889
301.6742369
300.8314915
300.4008655
300.1876519
300.0853205
300.0376918
300.0161843
300.0067572
300.0027443
300.0010846
300.0004174
300.0001564
300.0000571
300.0000203
300.0000071
300.0000024
300.0000008
300.0000003
300.0000001
300
300
300
300
300
300
300
300
300
591.9719575
599.1377725
619.2662674
664.5992041
760.954757
963.5141418
1387.957234
1908.279848
1912.184629
1462.643881
1124.88763
873.4787807
689.7042642
558.357146
466.8491381
404.8430012
364.0439749
338.0058229
321.9001892
312.2499677
306.6502016
303.5036573
301.7914813
300.889118
300.428396
300.2004368
300.0910925
300.0402257
300.0172663
300.0072066
300.002926
300.0011562
300.0004448
300.0001667
300.0000609
300.0000217
300.0000075
300.0000025
300.0000008
300.0000003
300.0000001
300
300
300
300
300
300
300
300
300
595.8717883
603.5345536
625.2116018
674.5169362
780.129456
998.4338715
1426.680095
1996.903149
2014.453834
1528.620204
1167.822687
901.1457015
707.3436657
569.4461139
473.7008354
408.9927356
366.5019817
339.4272049
322.7015035
312.689921
306.8852687
303.6258175
301.8532079
300.9194388
300.4428741
300.2071572
300.0941254
300.0415567
300.0178344
300.0074426
300.0030214
300.0011937
300.0004592
300.000172
300.0000628
300.0000224
300.0000078
300.0000026
300.0000009
300.0000003
300.0000001
300
300
300
300
300
300
300
300
300
595.8705489
603.532545
625.2067231
674.4977234
780.001185
997.329668
1417.723023
1996.702334
2014.466138
1528.655561
1167.829021
901.1463587
707.3437206
569.4461177
473.7008356
408.9927356
366.5019817
339.4272049
322.7015035
312.689921
306.8852687
303.6258175
301.8532079
300.9194388
300.4428741
300.2071572
300.0941254
300.0415567
300.0178344
300.0074426
300.0030214
300.0011937
300.0004592
300.000172
300.0000628
300.0000224
300.0000078
300.0000026
300.0000009
300.0000003
300.0000001
300
300
300
300
300
300
300
300
300
591.968733
599.1327285
619.2534921
664.5335534
760.4331974
959.5598629
1364.173806
1905.583678
1912.18465
1462.649264
1124.889167
873.478983
689.7042829
558.3571471
466.8491381
404.8430012
364.0439749
338.0058229
321.9001892
312.2499677
306.6502016
303.5036573
301.7914813
300.889118
300.428396
300.2004368
300.0910925
300.0402257
300.0172663
300.0072066
300.002926
300.0011562
300.0004448
300.0001667
300.0000609
300.0000217
300.0000075
300.0000025
300.0000008
300.0000003
300.0000001
300
300
300
300
300
300
300
300
300
584.5337985
590.8450585
608.3635266
647.005464
726.5559513
887.8754943
1188.477007
1748.35782
1726.292629
1341.310343
1045.75809
822.2044062
656.8477812
537.6149173
453.9891147
397.0329807
359.4076799
335.3200267
320.3838464
311.416436
306.2044009
303.2717889
301.6742369
300.8314915
300.4008655
300.1876519
300.0853205
300.0376918
300.0161843
300.0067572
300.0027443
300.0010846
300.0004174
300.0001564
300.0000571
300.0000203
300.0000071
300.0000024
300.0000008
300.0000003
300.0000001
300
300
300
300
300
300
300
300
300
574.1835372
579.4519111
593.9243069
625.1298703
687.4440899
809.9397744
1026.167467
1528.189418
1489.826613
1184.83101
942.3189596
754.4372164
613.0406939
509.7660087
436.6267882
386.4417235
353.0978401
331.6541404
318.3092518
310.2737988
305.5922828
302.9529794
301.5128437
300.752087
300.3628984
300.1700074
300.0773494
300.0341905
300.0146886
300.0061355
300.0024929
300.0009856
300.0003794
300.0001422
300.000052
300.0000185
300.0000064
300.0000022
300.0000007
300.0000002
300.0000001
300
300
300
300
300
300
300
300
300
561.6819892
565.8618386
577.2868641
601.4583812
648.6459089
738.8613717
899.5118918
1289.69543
1241.024745
1015.707519
828.2798989
678.5811953
563.4183138
477.9229063
416.6258134
374.1679102
345.7503655
327.368683
315.8762326
308.9301831
304.8708995
302.5765584
301.321983
300.6580572
300.3178857
300.1490675
300.0678812
300.0300284
300.0129093
300.0053956
300.0021935
300.0008677
300.0003341
300.0001253
300.0000458
300.0000163
300.0000057
300.0000019
300.0000006
300.0000002
300.0000001
300
300
300
300
300
300
300
300
300
547.8273669
551.0357485
559.815459
578.2087723
613.3476243
677.2636369
798.4059944
1061.281253
1009.502136
853.150952
716.0336611
602.5398159
512.9570142
445.1727198
395.8686831
361.3374532
338.0244629
322.8408483
313.2954291
307.5002667
304.1010662
302.1739214
301.1174256
300.5571088
300.2694903
300.1265253
300.0576772
300.0255385
300.0109883
300.0045961
300.0018697
300.0007401
300.0002851
300.000107
300.0000391
300.0000139
300.0000048
300.0000016
300.0000005
300.0000002
300.0000001
300
300
300
300
300
300
300
300
300
533.2913852
535.6681253
542.2429355
556.0312424
581.8454041
627.1778495
713.3612107
859.3918356
812.7505542
710.1278685
614.6524812
532.4434514
465.6867332
414.0988319
375.9712342
348.9362154
330.5065331
318.4104504
310.7585659
306.0893096
303.3389924
301.7742546
300.9139042
300.4564706
300.2211602
300.1039797
300.0474582
300.0210367
300.0090602
300.003793
300.0015442
300.0006116
300.0002358
300.0000885
300.0000324
300.0000115
300.000004
300.0000014
300.0000005
300.0000001
300
300
300
300
300
300
300
300
300
300
518.6214946
520.3042043
525.0842058
535.2508596
554.001033
587.1334462
646.7820806
692.684945
657.181554
592.9121026
529.2452792
472.0994879
424.2869949
386.5065021
358.1056179
337.7002242
323.6443511
314.3416649
308.4168617
304.781318
302.6299756
301.4012693
300.7234693
300.3620895
300.1757457
300.0827578
300.0378247
300.0167873
300.007238
300.0030331
300.001236
300.00049
300.000189
300.000071
300.000026
300.0000093
300.0000032
300.0000011
300.0000004
300.0000001
300
300
300
300
300
300
300
300
300
300
504.2268248
505.3348691
508.6676457
515.9256311
529.3309371
554.0537431
590.2107927
566.8726306
541.1582953
502.3187875
461.3815779
423.0815065
390.0565724
363.3633814
342.9451697
328.0740758
317.7188252
310.8051436
306.3702865
303.6328702
302.0049902
301.0713832
300.5545523
300.2781636
300.1352742
300.0638096
300.029209
300.0129811
300.0056038
300.0023509
300.0009589
300.0003805
300.0001469
300.0000552
300.0000202
300.0000072
300.0000025
300.0000009
300.0000003
300.0000001
300
300
300
300
300
300
300
300
300
300
490.3918861
491.0275771
493.1998703
498.121196
507.5286492
523.6336509
538.2492802
476.1060806
458.5585744
435.6489147
410.090721
385.2234571
363.1487108
344.9064852
330.7101997
320.2288485
312.8499693
307.879325
304.6673303
302.6725593
301.4802021
300.7933894
300.4117652
300.2070291
300.1008904
300.0476785
300.0218608
300.0097297
300.0042057
300.0017665
300.0007213
300.0002865
300.0001107
300.0000417
300.0000153
300.0000055
300.0000019
300.0000006
300.0000002
300.0000001
300
300
300
300
300
300
300
300
300
300
477.3001706
477.545068
478.7807966
482.0081686
488.8471617
498.0551483
493.0563581
413.5370151
401.9250319
388.5771657
372.975359
357.2596414
342.930922
330.8405416
321.2753634
314.1192045
309.0267356
305.5657384
303.3127074
301.9047976
301.0588095
300.5693275
300.296304
300.1493445
300.0729383
300.034536
300.0158624
300.007071
300.0030608
300.0012872
300.0005262
300.0002092
300.0000809
300.0000305
300.0000112
300.000004
300.0000014
300.0000005
300.0000002
300.0000001
300
300
300
300
300
300
300
300
300
300
465.0650711
464.9692358
465.4285893
467.4450686
471.3467205
474.2145611
455.501975
371.969466
364.2777218
356.5040763
347.1260056
337.4117473
328.3481319
320.5562067
314.2975585
309.5566515
306.1480608
303.8114993
302.2794132
301.3161306
300.7342735
300.3960983
300.2067363
300.1044641
300.0511342
300.0242606
300.0111631
300.0049842
300.0021606
300.0009099
300.0003724
300.0001482
300.0000574
300.0000216
300.0000079
300.0000028
300.000001
300.0000003
300.0000001
300
300
300
300
300
300
300
300
300
300
300
453.7504635
453.3483584
453.2496177
454.5987122
456.2666421
452.3925618
425.1770803
345.0879742
339.8950955
335.3164318
329.7250622
323.8226067
318.2151629
313.3185312
309.3330232
306.2800321
304.0640825
302.5327492
301.5216961
300.8822273
300.4939844
300.2673347
300.1399305
300.0708879
300.0347784
300.0165345
300.0076221
300.0034089
300.00148
300.0006241
300.0002558
300.0001019
300.0000395
300.0000149
300.0000055
300.000002
300.0000007
300.0000002
300.0000001
300
300
300
300
300
300
300
300
300
300
300
443.3708127
442.6993884
442.2010725
442.4508962
441.9154199
432.6535386
401.0992146
328.0669125
324.4524408
321.6948411
318.3628423
314.8183827
311.4117872
308.4021983
305.9263176
304.0116185
302.6102055
301.6346508
300.9864229
300.5741419
300.3226092
300.1751398
300.091932
300.0466904
300.0229592
300.0109379
300.0050516
300.0022631
300.000984
300.0004155
300.0001705
300.000068
300.0000264
300.00001
300.0000037
300.0000013
300.0000005
300.0000002
300.0000001
300
300
300
300
300
300
300
300
300
300
300
433.8985403
433.0418669
432.289202
431.3800123
427.9131956
414.4255923
380.7664098
317.4646979
314.8562499
313.1441213
311.1441899
309.0279322
306.9864755
305.1710414
303.666522
302.4945093
301.6307976
301.0257778
300.6214884
300.3630565
300.2046774
300.1114503
300.0586602
300.0298658
300.0147189
300.0070264
300.0032511
300.001459
300.0006354
300.0002687
300.0001104
300.0000441
300.0000171
300.0000065
300.0000024
300.0000009
300.0000003
300.0000001
300
300
300
300
300
300
300
300
300
300
300
300
425.2410326
424.2133377
422.6054562
420.5902231
414.0559779
396.9514928
361.7926999
311.1064886
308.9879017
307.8865997
306.6694091
305.4045276
304.1911108
303.1117618
302.2144804
301.5124293
300.9925535
300.6266276
300.3809801
300.2232823
300.1262571
300.0689397
300.0363778
300.0185644
300.0091687
300.0043855
300.0020328
300.0009138
300.0003985
300.0001688
300.0000694
300.0000278
300.0000108
300.0000041
300.0000015
300.0000005
300.0000002
300.0000001
300
300
300
300
300
300
300
300
300
300
300
300
417.2772419
416.0505891
414.0579087
410.4619532
401.5281779
382.9214901
351.3998364
306.6937541
305.4230385
304.7129098
303.9561604
303.1926693
302.4722674
301.8363266
301.3088847
300.895952
300.5895151
300.3732002
300.2275249
300.133704
300.0757982
300.0414883
300.0219422
300.0112214
300.0055531
300.002661
300.0012356
300.0005563
300.000243
300.000103
300.0000424
300.000017
300.0000066
300.0000025
300.0000009
300.0000003
300.0000001
300
300
300
300
300
300
300
300
300
300
300
300
300
410.0461506
408.7426573
406.2415978
401.131122
390.5211932
371.4023658
341.8993396
304.2828196
303.3220944
302.8309501
302.3420182
301.8716065
301.4407215
301.0668132
300.7595184
300.5199682
300.3424497
300.2171054
300.1325896
300.0780621
300.0443398
300.0243162
300.0128845
300.0066011
300.0032723
300.0015707
300.0007304
300.0003293
300.0001441
300.0000612
300.0000252
300.0000101
300.0000039
300.0000015
300.0000006
300.0000002
300.0000001
300
300
300
300
300
300
300
300
300
300
300
300
300
403.4041662
401.9981411
398.7908486
392.3896341
380.6126323
361.3607762
333.9903187
302.871724
302.0839405
301.7241334
301.3946977
301.0964107
300.8344087
300.6132041
300.4345133
300.2966638
300.1951274
300.1236648
300.0755482
300.0445127
300.0253098
300.0138969
300.0073733
300.0037827
300.0018778
300.0009025
300.0004203
300.0001897
300.0000831
300.0000353
300.0000146
300.0000059
300.0000023
300.0000009
300.0000003
300.0000001
300
300
300
300
300
300
300
300
300
300
300
300
300
300
396.8696454
395.1905735
391.2432063
383.8475473
371.3705777
352.428275
327.6772148
301.9837662
301.3422635
301.0717302
300.8419218
300.6466665
300.4835501
300.3508098
300.2463125
300.1671048
300.1094447
300.0691743
300.0421922
300.0248403
300.0141214
300.0077555
300.004117
300.0021137
300.0010501
300.0005052
300.0002355
300.0001064
300.0000467
300.0000199
300.0000082
300.0000033
300.0000013
300.0000005
300.0000002
300.0000001
300
300
300
300
300
300
300
300
300
300
300
300
300
300
389.7454862
387.6536883
382.991038
374.8722271
362.0912937
343.8498063
322.6775659
301.4140065
300.8856101
300.6806937
300.5170623
300.3859014
300.2818859
300.2007759
300.138995
300.0933032
300.0606321
300.0381056
300.023149
300.0135913
300.0077127
300.0042312
300.0022449
300.0011524
300.0005727
300.0002756
300.0001285
300.0000581
300.0000255
300.0000109
300.0000045
300.0000018
300.0000007
300.0000003
300.0000001
300
300
300
300
300
300
300
300
300
300
300
300
300
300
300
381.075081
378.4728855
373.0604464
364.2923507
351.3299866
334.547271
317.6643261
301.0033947
300.5877284
300.4364595
300.3206214
300.232006
300.1649633
300.1148723
300.0780759
300.0516482
300.0331808
300.02067
300.0124732
300.0072868
300.0041199
300.0022543
300.0011939
300.0006122
300.000304
300.0001463
300.0000682
300.0000309
300.0000135
300.0000058
300.0000024
300.000001
300.0000004
300.0000001
300.0000001
300
300
300
300
300
300
300
300
300
300
300
300
300
300
300
369.2695785
366.0190098
359.8055008
350.5449286
338.1609131
324.6407197
312.3573455
300.6668109
300.3767362
300.2725979
300.194542
300.136807
300.0947358
300.0644402
300.042925
300.0279208
300.0176914
300.0108991
300.0065193
300.0037825
300.0021273
300.0011594
300.0006122
300.0003132
300.0001553
300.0000747
300.0000348
300.0000157
300.0000069
300.0000029
300.0000012
300.0000005
300.0000002
300.0000001
300
300
300
300
300
300
300
300
300
300
300
300
300
300
300
300
351.3549345
347.4894265
341.2108116
333.0336894
323.6668118
314.7841906
307.294864
300.3833624
300.2123565
300.15087
300.1053575
300.0724741
300.0491358
300.0327739
300.0214507
300.0137401
300.0085931
300.0052365
300.0031044
300.0017883
300.001
300.0005426
300.0002855
300.0001457
300.0000721
300.0000346
300.0000161
300.0000073
300.0000032
300.0000014
300.0000006
300.0000002
300.0000001
300
300
300
300
300
300
300
300
300
300
300
300
300
300
300
300
300
322.5110795
319.4618689
315.9457275
312.0817716
308.2770117
305.1393629
302.5283863
300.1285341
300.0692621
300.048558
300.0334734
300.0227424
300.0152371
300.01005
300.0065101
300.0041315
300.0025629
300.001551
300.0009142
300.0005241
300.000292
300.0001579
300.0000829
300.0000422
300.0000209
300.00001
300.0000047
300.0000021
300.0000009
300.0000004
300.0000002
300.0000001
300
300
300
300
300
300
300
300
300
300
300
300
300
300
300
300
300
300
)
;

boundaryField
{
    lowerWall
    {
        type            fixedValue;
        value           uniform 300;
    }
    atmosphere
    {
        type            zeroGradient;
    }
    rightWall
    {
        type            empty;
    }
    leftWall
    {
        type            empty;
    }
    frontAndBack
    {
        type            fixedValue;
        value           uniform 300;
    }
}


// ************************************************************************* //
