/*--------------------------------*- C++ -*----------------------------------*\
  =========                 |
  \\      /  F ield         | OpenFOAM: The Open Source CFD Toolbox
   \\    /   O peration     | Website:  https://openfoam.org
    \\  /    A nd           | Version:  6
     \\/     M anipulation  |
\*---------------------------------------------------------------------------*/
FoamFile
{
    version     2.0;
    format      ascii;
    class       volVectorField;
    location    "0.17";
    object      U;
}
// * * * * * * * * * * * * * * * * * * * * * * * * * * * * * * * * * * * * * //

dimensions      [0 1 -1 0 0 0 0];

internalField   nonuniform List<vector> 
2500
(
(0 -1.429171245 -0.4441539696)
(0 -0.3761377867 -0.1980623413)
(0 -0.2736497421 -0.1500780262)
(0 0.0353362278 -0.1036557274)
(0 0.1325054131 -0.03460898596)
(0 0.1382425739 0.02491080783)
(0 0.01322699436 0.04808118405)
(0 -0.0003557244081 -0.001255823016)
(0 -1.81130584e-13 -6.595235793e-18)
(0 -3.572586594e-13 -4.543122167e-15)
(0 -3.440107206e-13 -8.241968983e-15)
(0 -3.250697925e-13 -1.068814956e-14)
(0 -3.024595054e-13 -1.191196392e-14)
(0 -2.783493682e-13 -1.219130611e-14)
(0 -2.542969932e-13 -1.185749843e-14)
(0 -2.312506955e-13 -1.118782529e-14)
(0 -2.096899036e-13 -1.037377368e-14)
(0 -1.897883283e-13 -9.529726218e-15)
(0 -1.715463541e-13 -8.714840471e-15)
(0 -1.548803599e-13 -7.954147042e-15)
(0 -1.396753312e-13 -7.254135793e-15)
(0 -1.25812008e-13 -6.61263882e-15)
(0 -1.131786163e-13 -6.024379219e-15)
(0 -1.016743284e-13 -5.483706351e-15)
(0 -9.120889032e-14 -4.985703633e-15)
(0 -8.17008812e-14 -4.526455202e-15)
(0 -7.307581622e-14 -4.102938788e-15)
(0 -6.526458811e-14 -3.712796548e-15)
(0 -5.820236907e-14 -3.354104545e-15)
(0 -5.182792774e-14 -3.025188454e-15)
(0 -4.608325822e-14 -2.724495905e-15)
(0 -4.091341375e-14 -2.450519336e-15)
(0 -3.626645581e-14 -2.201757641e-15)
(0 -3.2093453e-14 -1.9767046e-15)
(0 -2.834848634e-14 -1.773853973e-15)
(0 -2.498863521e-14 -1.591713629e-15)
(0 -2.197393142e-14 -1.428823362e-15)
(0 -1.926727721e-14 -1.283773023e-15)
(0 -1.683432865e-14 -1.155218947e-15)
(0 -1.464334897e-14 -1.041897741e-15)
(0 -1.266503711e-14 -9.426370866e-16)
(0 -1.087233761e-14 -8.56363716e-16)
(0 -9.240237029e-15 -7.82108887e-16)
(0 -7.745551345e-15 -7.190119036e-16)
(0 -6.366707621e-15 -6.663223698e-16)
(0 -5.083521254e-15 -6.234023305e-16)
(0 -3.876966355e-15 -5.897310265e-16)
(0 -2.72892534e-15 -5.649209419e-16)
(0 -1.621862961e-15 -5.487774605e-16)
(0 -5.382044362e-16 -5.415344133e-16)
(0 -1.611181712 -0.8877768898)
(0 -0.951017166 -0.6407328021)
(0 -0.5696627066 -0.4249036042)
(0 -0.2387760605 -0.2339521085)
(0 -0.07466742816 -0.06257623559)
(0 -0.007435731574 0.05892768276)
(0 -0.01172261799 0.09373855874)
(0 0.000136450044 0.0009295800692)
(0 -1.856800872e-13 5.927977599e-18)
(0 -3.655065749e-13 -1.446554752e-14)
(0 -3.50155748e-13 -2.597669617e-14)
(0 -3.287397875e-13 -3.328604505e-14)
(0 -3.039626619e-13 -3.668066106e-14)
(0 -2.782949027e-13 -3.718800182e-14)
(0 -2.532935124e-13 -3.59095529e-14)
(0 -2.297669708e-13 -3.370910157e-14)
(0 -2.080318046e-13 -3.115255145e-14)
(0 -1.881293951e-13 -2.856124074e-14)
(0 -1.699707749e-13 -2.60915677e-14)
(0 -1.534196552e-13 -2.380303881e-14)
(0 -1.38333823e-13 -2.170523376e-14)
(0 -1.245822515e-13 -1.978609237e-14)
(0 -1.120496838e-13 -1.802704261e-14)
(0 -1.006356528e-13 -1.641002073e-14)
(0 -9.025163917e-14 -1.492000786e-14)
(0 -8.081811636e-14 -1.354536218e-14)
(0 -7.226215757e-14 -1.227724534e-14)
(0 -6.451575387e-14 -1.110881401e-14)
(0 -5.751476098e-14 -1.003448053e-14)
(0 -5.11983191e-14 -9.049349549e-15)
(0 -4.55085891e-14 -8.148841084e-15)
(0 -4.039067549e-14 -7.328470809e-15)
(0 -3.579264107e-14 -6.583746969e-15)
(0 -3.166554934e-14 -5.910145796e-15)
(0 -2.796349537e-14 -5.303134442e-15)
(0 -2.46436046e-14 -4.758218662e-15)
(0 -2.166599082e-14 -4.270999699e-15)
(0 -1.899367279e-14 -3.837230644e-15)
(0 -1.659245337e-14 -3.452866712e-15)
(0 -1.443076711e-14 -3.114106882e-15)
(0 -1.247950309e-14 -2.817426226e-15)
(0 -1.071180941e-14 -2.559599442e-15)
(0 -9.102885217e-15 -2.337716775e-15)
(0 -7.629764828e-15 -2.149193879e-15)
(0 -6.271098047e-15 -1.991777422e-15)
(0 -5.006929911e-15 -1.863548786e-15)
(0 -3.818484966e-15 -1.762929655e-15)
(0 -2.687971774e-15 -1.688697798e-15)
(0 -1.598476432e-15 -1.640034796e-15)
(0 -5.30961389e-16 -1.616667378e-15)
(0 -1.490437761 -1.166030713)
(0 -1.246843791 -1.14154694)
(0 -0.8126441722 -0.8930253753)
(0 -0.4108537291 -0.5532073738)
(0 -0.09476176435 -0.1765915331)
(0 -0.03494084737 0.01557433108)
(0 0.006262624961 0.06203549664)
(0 -3.426169867e-05 -0.0009829619973)
(0 -1.956120132e-13 2.847337035e-18)
(0 -3.832489699e-13 -2.73116172e-14)
(0 -3.628312181e-13 -4.790580825e-14)
(0 -3.357737574e-13 -5.979532637e-14)
(0 -3.063614621e-13 -6.433667562e-14)
(0 -2.775782601e-13 -6.397215876e-14)
(0 -2.508180929e-13 -6.088565601e-14)
(0 -2.26493694e-13 -5.658832849e-14)
(0 -2.045420428e-13 -5.19676133e-14)
(0 -1.847273446e-13 -4.747236829e-14)
(0 -1.667881521e-13 -4.328823217e-14)
(0 -1.50494026e-13 -3.946221052e-14)
(0 -1.356583848e-13 -3.597865842e-14)
(0 -1.221338169e-13 -3.280047015e-14)
(0 -1.098025447e-13 -2.988874019e-14)
(0 -9.856729362e-14 -2.721044368e-14)
(0 -8.834423177e-14 -2.474012067e-14)
(0 -7.905811868e-14 -2.245897352e-14)
(0 -7.063926805e-14 -2.035315469e-14)
(0 -6.302182331e-14 -1.841207408e-14)
(0 -5.614290461e-14 -1.662704362e-14)
(0 -4.994228829e-14 -1.499032387e-14)
(0 -4.436237948e-14 -1.349452718e-14)
(0 -3.934831963e-14 -1.213229567e-14)
(0 -3.48481308e-14 -1.089617163e-14)
(0 -3.081284048e-14 -9.778590908e-15)
(0 -2.71965592e-14 -8.771946411e-15)
(0 -2.395650047e-14 -7.868684911e-15)
(0 -2.105294341e-14 -7.061412761e-15)
(0 -1.844914422e-14 -6.342996003e-15)
(0 -1.611120489e-14 -5.706647085e-15)
(0 -1.400790849e-14 -5.145995017e-15)
(0 -1.211052967e-14 -4.655138709e-15)
(0 -1.039262816e-14 -4.22868489e-15)
(0 -8.829831466e-15 -3.861772926e-15)
(0 -7.399611991e-15 -3.550089193e-15)
(0 -6.081062528e-15 -3.289873721e-15)
(0 -4.854673488e-15 -3.077921632e-15)
(0 -3.702115367e-15 -2.911581247e-15)
(0 -2.606030481e-15 -2.78874781e-15)
(0 -1.549832541e-15 -2.707838433e-15)
(0 -5.148370184e-16 -2.667672762e-15)
(0 -1.086809475 -1.123320061)
(0 -1.275325 -1.371106582)
(0 -1.001642793 -1.312243492)
(0 -0.6435623635 -1.000364497)
(0 -0.2065907839 -0.4734163765)
(0 0.03946033529 -0.03604383646)
(0 0.02619286812 0.04371167607)
(0 -0.000606988228 0.003238159281)
(0 -2.130165785e-13 2.098316418e-17)
(0 -4.134319717e-13 -4.680584002e-14)
(0 -3.826394571e-13 -7.85228655e-14)
(0 -3.451706548e-13 -9.36472051e-14)
(0 -3.081394943e-13 -9.689965965e-14)
(0 -2.748438831e-13 -9.348145493e-14)
(0 -2.459096821e-13 -8.70754716e-14)
(0 -2.20848928e-13 -7.979288034e-14)
(0 -1.989158444e-13 -7.265823741e-14)
(0 -1.79450014e-13 -6.607276695e-14)
(0 -1.619606171e-13 -6.012675239e-14)
(0 -1.461100815e-13 -5.477864743e-14)
(0 -1.316720826e-13 -4.994632674e-14)
(0 -1.184923332e-13 -4.554793047e-14)
(0 -1.064596574e-13 -4.151650935e-14)
(0 -9.548703326e-14 -3.780237603e-14)
(0 -8.550016901e-14 -3.437052328e-14)
(0 -7.643115039e-14 -3.119670572e-14)
(0 -6.821525814e-14 -2.826375775e-14)
(0 -6.078964279e-14 -2.555869755e-14)
(0 -5.409301077e-14 -2.307069026e-14)
(0 -4.806580267e-14 -2.078974976e-14)
(0 -4.26505609e-14 -1.870600307e-14)
(0 -3.779231993e-14 -1.680934872e-14)
(0 -3.343893631e-14 -1.508937004e-14)
(0 -2.954132412e-14 -1.353539909e-14)
(0 -2.605358937e-14 -1.213665791e-14)
(0 -2.293307095e-14 -1.088242865e-14)
(0 -2.014030191e-14 -9.762222722e-15)
(0 -1.763890711e-14 -8.765932423e-15)
(0 -1.539545239e-14 -7.883957282e-15)
(0 -1.337925874e-14 -7.107303011e-15)
(0 -1.156219296e-14 -6.427654428e-15)
(0 -9.918443629e-15 -5.837425466e-15)
(0 -8.42428952e-15 -5.329790225e-15)
(0 -7.057865623e-15 -4.898699153e-15)
(0 -5.798930487e-15 -4.538884179e-15)
(0 -4.628637436e-15 -4.245856039e-15)
(0 -3.529311143e-15 -4.015895918e-15)
(0 -2.484228961e-15 -3.846041541e-15)
(0 -1.477401385e-15 -3.734064566e-15)
(0 -4.907957178e-16 -3.678438627e-15)
(0 -0.5838795671 -0.8740538974)
(0 -1.048020881 -1.298926914)
(0 -1.031660487 -1.519406222)
(0 -0.8335742814 -1.392965968)
(0 -0.4347727114 -0.8782720473)
(0 -0.03149910344 -0.198799934)
(0 0.0274122304 0.07822981599)
(0 -0.00123066333 0.006489157817)
(0 -2.42439152e-13 2.277523138e-17)
(0 -4.618032572e-13 -8.123629432e-14)
(0 -4.096725832e-13 -1.257015049e-13)
(0 -3.541505516e-13 -1.393684467e-13)
(0 -3.06195712e-13 -1.361408048e-13)
(0 -2.67754072e-13 -1.259863391e-13)
(0 -2.371295183e-13 -1.141472995e-13)
(0 -2.120764599e-13 -1.02852578e-13)
(0 -1.908219294e-13 -9.280122067e-14)
(0 -1.721958595e-13 -8.403434287e-14)
(0 -1.554940326e-13 -7.636753653e-14)
(0 -1.403136003e-13 -6.957926601e-14)
(0 -1.264276678e-13 -6.347996031e-14)
(0 -1.137039995e-13 -5.792829071e-14)
(0 -1.020569902e-13 -5.282687603e-14)
(0 -9.142130755e-14 -4.811193025e-14)
(0 -8.173856146e-14 -4.374280918e-14)
(0 -7.295135316e-14 -3.969349905e-14)
(0 -6.500125988e-14 -3.59464118e-14)
(0 -5.782875582e-14 -3.248821127e-14)
(0 -5.137395682e-14 -2.9307215e-14)
(0 -4.55776011e-14 -2.639192652e-14)
(0 -4.038197844e-14 -2.373032994e-14)
(0 -3.57316866e-14 -2.13096674e-14)
(0 -3.157418116e-14 -1.911649966e-14)
(0 -2.786012835e-14 -1.713691404e-14)
(0 -2.454358877e-14 -1.535679175e-14)
(0 -2.158206528e-14 -1.376208121e-14)
(0 -1.893644718e-14 -1.23390473e-14)
(0 -1.657087878e-14 -1.107448227e-14)
(0 -1.445257548e-14 -9.955873753e-15)
(0 -1.255160563e-14 -8.97153123e-15)
(0 -1.084065213e-14 -8.110675396e-15)
(0 -9.294763959e-15 -7.363496317e-15)
(0 -7.891105153e-15 -6.721186626e-15)
(0 -6.608705945e-15 -6.175955682e-15)
(0 -5.428219414e-15 -5.721029977e-15)
(0 -4.331685227e-15 -5.350644189e-15)
(0 -3.302300869e-15 -5.06002627e-15)
(0 -2.324199128e-15 -4.845379014e-15)
(0 -1.382229627e-15 -4.703860589e-15)
(0 -4.592110801e-16 -4.633571059e-15)
(0 -0.1901915403 -0.5391721378)
(0 -0.7260601027 -1.008437459)
(0 -0.945815421 -1.482954221)
(0 -0.9349359439 -1.628749396)
(0 -0.6461856138 -1.261683126)
(0 -0.2285298025 -0.5062022475)
(0 0.01893924841 0.07512754615)
(0 -0.001200010184 0.003853499141)
(0 -2.942715402e-13 3.03229355e-17)
(0 -5.391654889e-13 -1.520545545e-13)
(0 -4.407716095e-13 -2.036379635e-13)
(0 -3.556099547e-13 -2.020035756e-13)
(0 -2.947573867e-13 -1.823322717e-13)
(0 -2.528503778e-13 -1.601908403e-13)
(0 -2.22775921e-13 -1.406824652e-13)
(0 -1.995028492e-13 -1.24672211e-13)
(0 -1.800976093e-13 -1.116608593e-13)
(0 -1.630163298e-13 -1.008960371e-13)
(0 -1.475055403e-13 -9.172962702e-14)
(0 -1.332225053e-13 -8.369067921e-14)
(0 -1.200211073e-13 -7.646573796e-14)
(0 -1.07839249e-13 -6.985822755e-14)
(0 -9.664329692e-14 -6.37506574e-14)
(0 -8.640296641e-14 -5.80755858e-14)
(0 -7.708173781e-14 -5.279524115e-14)
(0 -6.863475301e-14 -4.788804738e-14)
(0 -6.100997036e-14 -4.334016999e-14)
(0 -5.415044599e-14 -3.914051895e-14)
(0 -4.799672601e-14 -3.52780337e-14)
(0 -4.248891761e-14 -3.174041425e-14)
(0 -3.756830178e-14 -2.851372534e-14)
(0 -3.317848966e-14 -2.558249281e-14)
(0 -2.926618296e-14 -2.293004738e-14)
(0 -2.57816162e-14 -2.05389645e-14)
(0 -2.267875654e-14 -1.839151142e-14)
(0 -1.99153265e-14 -1.647005365e-14)
(0 -1.745270297e-14 -1.475739867e-14)
(0 -1.525573357e-14 -1.323707062e-14)
(0 -1.329250134e-14 -1.189351878e-14)
(0 -1.153406038e-14 -1.0712267e-14)
(0 -9.954158048e-15 -9.680013651e-15)
(0 -8.528954859e-15 -8.78469172e-15)
(0 -7.236748884e-15 -8.015498178e-15)
(0 -6.057708974e-15 -7.362900866e-15)
(0 -4.973618994e-15 -6.818629763e-15)
(0 -3.967633729e-15 -6.375658381e-15)
(0 -3.024045968e-15 -6.028179861e-15)
(0 -2.12806328e-15 -5.77158153e-15)
(0 -1.265593429e-15 -5.602421559e-15)
(0 -4.20506187e-16 -5.518412257e-15)
(0 -0.004243611859 -0.2333057135)
(0 -0.436111135 -0.6326633207)
(0 -0.8143813569 -1.260592358)
(0 -0.9795077424 -1.703692153)
(0 -0.824409539 -1.593852941)
(0 -0.4102613296 -0.8856115494)
(0 0.006673297649 -0.02705796345)
(0 0.0003732204367 0.007343731272)
(0 -3.945781192e-13 -6.731502883e-16)
(0 -6.655004024e-13 -3.222953e-13)
(0 -4.596216043e-13 -3.348475815e-13)
(0 -3.328448597e-13 -2.827729155e-13)
(0 -2.643829766e-13 -2.310461415e-13)
(0 -2.261042655e-13 -1.917835393e-13)
(0 -2.016108891e-13 -1.637263817e-13)
(0 -1.830548539e-13 -1.434942361e-13)
(0 -1.670457556e-13 -1.282734623e-13)
(0 -1.522646273e-13 -1.161584418e-13)
(0 -1.382886747e-13 -1.059634728e-13)
(0 -1.250497113e-13 -9.698750516e-14)
(0 -1.125952162e-13 -8.883369254e-14)
(0 -1.009889189e-13 -8.128797704e-14)
(0 -9.027434847e-14 -7.424179516e-14)
(0 -8.04658913e-14 -6.764443691e-14)
(0 -7.155102304e-14 -6.147448728e-14)
(0 -6.3496282e-14 -5.572326961e-14)
(0 -5.625373146e-14 -5.038570595e-14)
(0 -4.976661952e-14 -4.545567157e-14)
(0 -4.397385211e-14 -4.092399952e-14)
(0 -3.881329274e-14 -3.677798411e-14)
(0 -3.422405701e-14 -3.300167554e-14)
(0 -3.014800864e-14 -2.957654029e-14)
(0 -2.653065284e-14 -2.648223966e-14)
(0 -2.332159239e-14 -2.369739039e-14)
(0 -2.047467793e-14 -2.120023946e-14)
(0 -1.794795253e-14 -1.896922577e-14)
(0 -1.570346414e-14 -1.698342462e-14)
(0 -1.370699889e-14 -1.522288366e-14)
(0 -1.192777185e-14 -1.366886423e-14)
(0 -1.033810051e-14 -1.230400459e-14)
(0 -8.913076852e-15 -1.111242068e-14)
(0 -7.630248486e-15 -1.007975894e-14)
(0 -6.469314299e-15 -9.193213787e-15)
(0 -5.41183753e-15 -8.441520236e-15)
(0 -4.440976929e-15 -7.81493034e-15)
(0 -3.541235324e-15 -7.305180328e-15)
(0 -2.698224018e-15 -6.905453956e-15)
(0 -1.898440827e-15 -6.610346435e-15)
(0 -1.129060354e-15 -6.415832622e-15)
(0 -3.752017783e-16 -6.319242556e-15)
(0 0.01340078842 -0.07524688104)
(0 -0.219937763 -0.2820872882)
(0 -0.6493810076 -0.923977327)
(0 -0.9620398795 -1.62185855)
(0 -0.963876769 -1.83794282)
(0 -0.6066236759 -1.329963959)
(0 -0.06083723053 -0.3800829361)
(0 0.004119536034 0.01533126536)
(0 -6.159921747e-13 -1.057982934e-12)
(0 -8.733812906e-13 -8.007165986e-13)
(0 -4.01249225e-13 -5.315735912e-13)
(0 -2.518085148e-13 -3.634600984e-13)
(0 -2.037680104e-13 -2.673633946e-13)
(0 -1.85530618e-13 -2.121816725e-13)
(0 -1.744866178e-13 -1.789425539e-13)
(0 -1.640499297e-13 -1.573003868e-13)
(0 -1.52761815e-13 -1.41776727e-13)
(0 -1.407063403e-13 -1.294983781e-13)
(0 -1.283346036e-13 -1.189767998e-13)
(0 -1.16092725e-13 -1.094612651e-13)
(0 -1.043215792e-13 -1.005930256e-13)
(0 -9.324735158e-14 -9.221790696e-14)
(0 -8.299975679e-14 -8.428396651e-14)
(0 -7.363565853e-14 -7.67858198e-14)
(0 -6.516057051e-14 -6.973498793e-14)
(0 -5.754597168e-14 -6.314484791e-14)
(0 -5.074237231e-14 -5.702373301e-14)
(0 -4.468873957e-14 -5.137248504e-14)
(0 -3.931903855e-14 -4.618433075e-14)
(0 -3.456659362e-14 -4.144586612e-14)
(0 -3.036685796e-14 -3.713846778e-14)
(0 -2.665905379e-14 -3.323976498e-14)
(0 -2.338703305e-14 -2.972498926e-14)
(0 -2.0499616e-14 -2.656812401e-14)
(0 -1.795059191e-14 -2.374283432e-14)
(0 -1.569851166e-14 -2.122318786e-14)
(0 -1.370636086e-14 -1.898419188e-14)
(0 -1.194117317e-14 -1.700217597e-14)
(0 -1.037362228e-14 -1.525505032e-14)
(0 -8.977616835e-15 -1.372246674e-14)
(0 -7.729912397e-15 -1.238590582e-14)
(0 -6.609747963e-15 -1.122870996e-14)
(0 -5.598510177e-15 -1.023607835e-14)
(0 -4.679425527e-15 -9.395036704e-15)
(0 -3.837279087e-15 -8.694391985e-15)
(0 -3.058157346e-15 -8.124679771e-15)
(0 -2.329212075e-15 -7.678110484e-15)
(0 -1.638441945e-15 -7.348519024e-15)
(0 -9.744895503e-16 -7.13132138e-15)
(0 -3.239161213e-16 -7.023480771e-15)
(0 0.01786953244 -0.00036358919)
(0 -0.05728880843 -0.02428878162)
(0 -0.4255994774 -0.5385474935)
(0 -0.8393230056 -1.391044256)
(0 -1.014360217 -1.939807644)
(0 -0.8043839704 -1.726990082)
(0 -0.2852477682 -0.8344300228)
(0 0.003457386785 0.0244374094)
(0 -1.37178723e-13 -3.24707077e-12)
(0 -1.391607424e-13 -1.293828529e-12)
(0 -2.236510411e-14 -6.27995281e-13)
(0 -6.863466307e-14 -3.721457004e-13)
(0 -1.131045507e-13 -2.627060955e-13)
(0 -1.376834249e-13 -2.105943059e-13)
(0 -1.467296033e-13 -1.825374852e-13)
(0 -1.458890271e-13 -1.649750094e-13)
(0 -1.392437469e-13 -1.520277561e-13)
(0 -1.294647001e-13 -1.410778533e-13)
(0 -1.182515617e-13 -1.309821235e-13)
(0 -1.06665937e-13 -1.212867084e-13)
(0 -9.535185798e-14 -1.118587288e-13)
(0 -8.467985988e-14 -1.02706429e-13)
(0 -7.484226132e-14 -9.389026338e-14)
(0 -6.591691272e-14 -8.547988291e-14)
(0 -5.791005115e-14 -7.753482679e-14)
(0 -5.078502708e-14 -7.009744384e-14)
(0 -4.448136859e-14 -6.319193689e-14)
(0 -3.892721727e-14 -5.682624406e-14)
(0 -3.404723319e-14 -5.099500482e-14)
(0 -2.976742977e-14 -4.568270732e-14)
(0 -2.601795586e-14 -4.086658351e-14)
(0 -2.273453012e-14 -3.651907613e-14)
(0 -1.985901188e-14 -3.260983754e-14)
(0 -1.733943745e-14 -2.910728788e-14)
(0 -1.512974177e-14 -2.597978926e-14)
(0 -1.31893101e-14 -2.319650107e-14)
(0 -1.148245226e-14 -2.072797959e-14)
(0 -9.97785732e-15 -1.854657787e-14)
(0 -8.648062623e-15 -1.662669389e-14)
(0 -7.468956013e-15 -1.494490574e-14)
(0 -6.419320077e-15 -1.348002555e-14)
(0 -5.480421012e-15 -1.221309662e-14)
(0 -4.63564104e-15 -1.112735311e-14)
(0 -3.870151169e-15 -1.020815674e-14)
(0 -3.170619996e-15 -9.442921918e-15)
(0 -2.524953823e-15 -8.821037345e-15)
(0 -1.922063272e-15 -8.333790465e-15)
(0 -1.351651723e-15 -7.974299246e-15)
(0 -8.040221006e-16 -7.737454634e-15)
(0 -2.673611692e-16 -7.619875909e-15)
(0 0.06993730581 0.0292105438)
(0 0.07457408803 0.1117649449)
(0 -0.1372226567 -0.1609920553)
(0 -0.5759081468 -1.022922436)
(0 -0.9124046646 -1.867328442)
(0 -0.9179121472 -2.024334112)
(0 -0.5636956335 -1.198246493)
(0 -0.00179196426 -0.2117247224)
(0 1.338130355e-12 -1.011814474e-12)
(0 1.745556605e-12 -5.0411039e-13)
(0 5.204336033e-13 -3.11388352e-13)
(0 1.134806707e-13 -2.335441547e-13)
(0 -4.221661586e-14 -2.004405373e-13)
(0 -1.053620077e-13 -1.848529554e-13)
(0 -1.288673213e-13 -1.755995046e-13)
(0 -1.335402006e-13 -1.680180422e-13)
(0 -1.28864659e-13 -1.602740363e-13)
(0 -1.196607077e-13 -1.517996988e-13)
(0 -1.085434586e-13 -1.425855238e-13)
(0 -9.696933034e-14 -1.328440102e-13)
(0 -8.574129987e-14 -1.228484929e-13)
(0 -7.527888616e-14 -1.12858774e-13)
(0 -6.577321066e-14 -1.030908295e-13)
(0 -5.728022194e-14 -9.370871221e-14)
(0 -4.977813144e-14 -8.482708838e-14)
(0 -4.320308177e-14 -7.651825076e-14)
(0 -3.747117253e-14 -6.882039929e-14)
(0 -3.24918075e-14 -6.174560679e-14)
(0 -2.817550181e-14 -5.528678039e-14)
(0 -2.44381723e-14 -4.942340609e-14)
(0 -2.120322677e-14 -4.41261044e-14)
(0 -1.840230782e-14 -3.936013261e-14)
(0 -1.59752448e-14 -3.508800543e-14)
(0 -1.386956772e-14 -3.127140523e-14)
(0 -1.203980511e-14 -2.787253552e-14)
(0 -1.044670199e-14 -2.485504758e-14)
(0 -9.056437663e-15 -2.218464646e-14)
(0 -7.839887473e-15 -1.982946049e-14)
(0 -6.771950144e-15 -1.776023996e-14)
(0 -5.830948493e-15 -1.595043526e-14)
(0 -4.998103284e-15 -1.437619281e-14)
(0 -4.257075526e-15 -1.30162971e-14)
(0 -3.593570293e-15 -1.18520804e-14)
(0 -2.994994336e-15 -1.086731536e-14)
(0 -2.450159692e-15 -1.004810216e-14)
(0 -1.949025892e-15 -9.382758151e-15)
(0 -1.482473976e-15 -8.861716009e-15)
(0 -1.042106115e-15 -8.477434315e-15)
(0 -6.200662126e-16 -8.224323574e-15)
(0 -2.063373961e-16 -8.098689435e-15)
(0 0.149543447 0.03392057722)
(0 0.1658665534 0.1327573992)
(0 0.1465923583 0.1168191739)
(0 -0.2131579346 -0.5613013694)
(0 -0.6529721427 -1.59692104)
(0 -0.8471245282 -2.219353429)
(0 -0.4854822138 -1.728464021)
(0 0.001688379909 -0.496985743)
(0 3.699747548e-13 2.141073267e-12)
(0 5.603550891e-13 5.98225696e-13)
(0 2.482011312e-13 1.207539518e-13)
(0 4.23131516e-14 -4.998189686e-14)
(0 -6.441335135e-14 -1.205771574e-13)
(0 -1.128423922e-13 -1.52744386e-13)
(0 -1.298946902e-13 -1.669752288e-13)
(0 -1.305635588e-13 -1.712172203e-13)
(0 -1.230254035e-13 -1.692478301e-13)
(0 -1.117761876e-13 -1.632602605e-13)
(0 -9.929587317e-14 -1.547159545e-13)
(0 -8.692890603e-14 -1.446553832e-13)
(0 -7.536662177e-14 -1.338326793e-13)
(0 -6.492219652e-14 -1.227896075e-13)
(0 -5.56921995e-14 -1.119058195e-13)
(0 -4.76531716e-14 -1.014372648e-13)
(0 -4.071958971e-14 -9.154673978e-14)
(0 -3.477833798e-14 -8.232820828e-14)
(0 -2.970872462e-14 -7.382590514e-14)
(0 -2.539359837e-14 -6.60490776e-14)
(0 -2.172503249e-14 -5.898315567e-14)
(0 -1.860675379e-14 -5.259806693e-14)
(0 -1.595468239e-14 -4.685431736e-14)
(0 -1.369643114e-14 -4.170735723e-14)
(0 -1.17702845e-14 -3.711065261e-14)
(0 -1.012396754e-14 -3.301779404e-14)
(0 -8.713384118e-15 -2.938389919e-14)
(0 -7.501421032e-15 -2.616650482e-14)
(0 -6.45686517e-15 -2.332609496e-14)
(0 -5.553450819e-15 -2.082637427e-14)
(0 -4.769037393e-15 -1.863436697e-14)
(0 -4.084908861e-15 -1.672039977e-14)
(0 -3.485181917e-15 -1.505801112e-14)
(0 -2.956308607e-15 -1.362381704e-14)
(0 -2.486659298e-15 -1.239735514e-14)
(0 -2.066172924e-15 -1.136092188e-14)
(0 -1.686062786e-15 -1.049941349e-14)
(0 -1.338567677e-15 -9.80017788e-15)
(0 -1.016739436e-15 -9.252882286e-15)
(0 -7.142592876e-16 -8.849399905e-15)
(0 -4.252772206e-16 -8.583717545e-15)
(0 -1.417270304e-16 -8.451865567e-15)
(0 0.2243208064 0.03123981402)
(0 0.2340978958 0.1040877087)
(0 0.2884728955 0.1818658741)
(0 0.1257276869 -0.1312477591)
(0 -0.3138531279 -1.146031518)
(0 -0.7809639425 -2.186886683)
(0 -0.6933014948 -2.168916034)
(0 0.002049927465 -0.7118910404)
(0 -2.068134536e-13 1.298055883e-12)
(0 -2.766563575e-13 6.363145115e-13)
(0 -1.277739896e-13 2.434021884e-13)
(0 -1.278504385e-13 3.271002236e-14)
(0 -1.44979105e-13 -7.9349089e-14)
(0 -1.517600791e-13 -1.386351703e-13)
(0 -1.473401557e-13 -1.683606948e-13)
(0 -1.358128019e-13 -1.806357001e-13)
(0 -1.209076991e-13 -1.822434558e-13)
(0 -1.051288322e-13 -1.772796597e-13)
(0 -8.993858139e-14 -1.683640812e-13)
(0 -7.60860551e-14 -1.572299518e-13)
(0 -6.387552412e-14 -1.450380468e-13)
(0 -5.335202634e-14 -1.325617794e-13)
(0 -4.442086798e-14 -1.203060464e-13)
(0 -3.692114225e-14 -1.085881373e-13)
(0 -3.06690749e-14 -9.759465223e-14)
(0 -2.548224714e-14 -8.742211888e-14)
(0 -2.119204186e-14 -7.810606153e-14)
(0 -1.764905803e-14 -6.964172786e-14)
(0 -1.472449114e-14 -6.199875284e-14)
(0 -1.230933399e-14 -5.51314223e-14)
(0 -1.031251707e-14 -4.898575959e-14)
(0 -8.658643067e-15 -4.350433488e-14)
(0 -7.285681613e-15 -3.862945559e-14)
(0 -6.142814299e-15 -3.430521683e-14)
(0 -5.188515893e-15 -3.047875772e-14)
(0 -4.388897764e-15 -2.71009718e-14)
(0 -3.716307109e-15 -2.412684827e-14)
(0 -3.148159483e-15 -2.151556893e-14)
(0 -2.665975652e-15 -1.92304488e-14)
(0 -2.254592644e-15 -1.72387815e-14)
(0 -1.901520546e-15 -1.551163155e-14)
(0 -1.59641955e-15 -1.40236024e-14)
(0 -1.330675141e-15 -1.275259977e-14)
(0 -1.097052686e-15 -1.167960288e-14)
(0 -8.894156872e-16 -1.078845212e-14)
(0 -7.02494685e-16 -1.006565827e-14)
(0 -5.316960001e-16 -9.500236519e-15)
(0 -3.729413729e-16 -9.083567005e-15)
(0 -2.225318751e-16 -8.809282866e-15)
(0 -7.448541881e-17 -8.673186166e-15)
(0 0.2839714012 0.02736867423)
(0 0.2902966133 0.07693145481)
(0 0.3335374012 0.1470006122)
(0 0.3155056709 0.1088797929)
(0 0.04035424097 -0.5962878548)
(0 -0.6382977732 -1.910759977)
(0 -0.8720205 -2.481956484)
(0 -0.002742744837 -1.125515746)
(0 -2.937812056e-13 5.758933318e-13)
(0 -4.971241739e-13 4.066657544e-13)
(0 -3.55403358e-13 1.838013311e-13)
(0 -2.804381258e-13 1.657839246e-14)
(0 -2.35758544e-13 -9.10080195e-14)
(0 -2.01853998e-13 -1.541422776e-13)
(0 -1.7189522e-13 -1.872233955e-13)
(0 -1.444463198e-13 -2.00734892e-13)
(0 -1.19669363e-13 -2.018180205e-13)
(0 -9.789681301e-14 -1.952552769e-13)
(0 -7.924616535e-14 -1.842336238e-13)
(0 -6.360287156e-14 -1.70864236e-13)
(0 -5.069844936e-14 -1.565291229e-13)
(0 -4.019019619e-14 -1.421143596e-13)
(0 -3.171855736e-14 -1.281691081e-13)
(0 -2.49417774e-14 -1.150150419e-13)
(0 -1.955357129e-14 -1.028219244e-13)
(0 -1.528974728e-14 -9.165976183e-14)
(0 -1.19283336e-14 -8.153462978e-14)
(0 -9.286289684e-15 -7.241310422e-14)
(0 -7.214726927e-15 -6.423875533e-14)
(0 -5.593760527e-15 -5.694313603e-14)
(0 -4.327594962e-15 -5.045297446e-14)
(0 -3.340127149e-15 -4.469476788e-14)
(0 -2.571166454e-15 -3.959761291e-14)
(0 -1.973269663e-15 -3.509485161e-14)
(0 -1.50913909e-15 -3.112493327e-14)
(0 -1.149511587e-15 -2.763176642e-14)
(0 -8.714622927e-16 -2.456474796e-14)
(0 -6.570513452e-16 -2.187859592e-14)
(0 -4.922499701e-16 -1.953307059e-14)
(0 -3.660916067e-16 -1.749264003e-14)
(0 -2.70002812e-16 -1.572612663e-14)
(0 -1.972768316e-16 -1.420635799e-14)
(0 -1.426597804e-16 -1.290983658e-14)
(0 -1.020252718e-16 -1.181643672e-14)
(0 -7.211817398e-17 -1.09091337e-14)
(0 -5.035207801e-17 -1.017376718e-14)
(0 -3.464817197e-17 -9.598839729e-15)
(0 -2.330563375e-17 -9.175350379e-15)
(0 -1.489638147e-17 -8.89666264e-15)
(0 -5.630330762e-18 -8.758406296e-15)
(0 0.3306430872 0.02294669539)
(0 0.3359269782 0.0645528615)
(0 0.3512958539 0.1047030986)
(0 0.3686401538 0.1725895645)
(0 0.3260074715 -0.112648211)
(0 -0.4118999611 -1.424211905)
(0 -0.9798486249 -2.610478642)
(0 -0.01106793164 -1.669368743)
(0 -3.794769351e-13 3.724427109e-13)
(0 -6.732320756e-13 2.273179114e-13)
(0 -5.178613515e-13 6.906813188e-14)
(0 -4.026597891e-13 -5.909205003e-14)
(0 -3.156997751e-13 -1.471226825e-13)
(0 -2.479754551e-13 -1.997220578e-13)
(0 -1.9393277e-13 -2.256724352e-13)
(0 -1.504074269e-13 -2.332742559e-13)
(0 -1.15428084e-13 -2.29046443e-13)
(0 -8.754443546e-14 -2.176951886e-13)
(0 -6.554754056e-14 -2.024545521e-13)
(0 -4.838155417e-14 -1.854667302e-13)
(0 -3.512564766e-14 -1.681015386e-13)
(0 -2.499201157e-14 -1.511985706e-13)
(0 -1.732155025e-14 -1.352417498e-13)
(0 -1.15739585e-14 -1.204815027e-13)
(0 -7.31379486e-15 -1.070185679e-13)
(0 -4.194952561e-15 -9.486057913e-14)
(0 -1.94538425e-15 -8.395971448e-14)
(0 -3.531835836e-16 -7.423737241e-14)
(0 7.454770438e-16 -6.56000613e-14)
(0 1.47644688e-15 -5.794940259e-14)
(0 1.935851084e-15 -5.118823118e-14)
(0 2.196718479e-15 -4.522413828e-14)
(0 2.314234656e-15 -3.997136165e-14)
(0 2.329865346e-15 -3.535162709e-14)
(0 2.2745693e-15 -3.129434116e-14)
(0 2.171287547e-15 -2.77363976e-14)
(0 2.036863385e-15 -2.462176783e-14)
(0 1.883517883e-15 -2.190098474e-14)
(0 1.719980244e-15 -1.953058812e-14)
(0 1.552351319e-15 -1.747257382e-14)
(0 1.384761489e-15 -1.56938712e-14)
(0 1.2198705e-15 -1.416586227e-14)
(0 1.059246133e-15 -1.286394922e-14)
(0 9.03650195e-16 -1.176717238e-14)
(0 7.53253854e-16 -1.085787853e-14)
(0 6.077992843e-16 -1.012143765e-14)
(0 4.66720799e-16 -9.546006175e-15)
(0 3.292357165e-16 -9.122333986e-15)
(0 1.944122081e-16 -8.843613151e-15)
(0 6.377092518e-17 -8.705366207e-15)
(0 0.3712417133 0.01962362862)
(0 0.3740449255 0.05952768418)
(0 0.3813411866 0.09039345402)
(0 0.3718293361 0.1569693201)
(0 0.4741073201 0.1662494368)
(0 -0.1085180848 -0.801587098)
(0 -0.9949516879 -2.508454807)
(0 -0.02202369427 -2.307213062)
(0 -4.448655091e-13 1.851333664e-13)
(0 -8.072513921e-13 5.466119536e-14)
(0 -6.418133194e-13 -7.562390693e-14)
(0 -4.966289402e-13 -1.748179024e-13)
(0 -3.763885518e-13 -2.38647935e-13)
(0 -2.804037508e-13 -2.719531567e-13)
(0 -2.054474181e-13 -2.82478919e-13)
(0 -1.478203275e-13 -2.776523197e-13)
(0 -1.040902957e-13 -2.634056757e-13)
(0 -7.130492215e-14 -2.440299501e-13)
(0 -4.701770698e-14 -2.224265349e-13)
(0 -2.924985807e-14 -2.004492516e-13)
(0 -1.643028976e-14 -1.79213515e-13)
(0 -7.330407355e-15 -1.593378079e-13)
(0 -1.001489412e-15 -1.411185723e-13)
(0 3.281404455e-15 -1.246511233e-13)
(0 6.06735227e-15 -1.0991055e-13)
(0 7.769106181e-15 -9.68044339e-14)
(0 8.694873131e-15 -8.520635935e-14)
(0 9.073363501e-15 -7.497664292e-14)
(0 9.073242886e-15 -6.597471815e-14)
(0 8.818069584e-15 -5.806616794e-14)
(0 8.397669349e-15 -5.112638648e-14)
(0 7.876742384e-15 -4.504216571e-14)
(0 7.301344739e-15 -3.971204103e-14)
(0 6.703750827e-15 -3.504592798e-14)
(0 6.106090405e-15 -3.09643831e-14)
(0 5.523061744e-15 -2.739769426e-14)
(0 4.963950565e-15 -2.428492336e-14)
(0 4.43412837e-15 -2.157297242e-14)
(0 3.936160947e-15 -1.921571148e-14)
(0 3.470625308e-15 -1.717318671e-14)
(0 3.036708738e-15 -1.541091519e-14)
(0 2.632645153e-15 -1.389926584e-14)
(0 2.256030109e-15 -1.261292259e-14)
(0 1.904045417e-15 -1.153042354e-14)
(0 1.573616555e-15 -1.063377011e-14)
(0 1.261520273e-15 -9.908099501e-15)
(0 9.644554947e-16 -9.341414898e-15)
(0 6.790873906e-16 -8.924368384e-15)
(0 4.020713981e-16 -8.650092243e-15)
(0 1.326166134e-16 -8.514075323e-15)
(0 0.4092917642 0.01798074404)
(0 0.4100364973 0.05521644375)
(0 0.4230280862 0.09241840469)
(0 0.3944148416 0.1278437918)
(0 0.5153977166 0.2688239501)
(0 0.2400713327 -0.1776111844)
(0 -0.8661947588 -2.1376128)
(0 -0.03104549515 -2.983166812)
(0 -5.191407349e-13 3.469104875e-14)
(0 -9.436099378e-13 -1.273842053e-13)
(0 -7.473404493e-13 -2.513237447e-13)
(0 -5.656838172e-13 -3.258620544e-13)
(0 -4.128350294e-13 -3.606833647e-13)
(0 -2.91806439e-13 -3.669652661e-13)
(0 -1.99631933e-13 -3.546452362e-13)
(0 -1.313341837e-13 -3.314586467e-13)
(0 -8.180571443e-14 -3.029009517e-13)
(0 -4.656529467e-14 -2.725976503e-13)
(0 -2.196684207e-14 -2.427760869e-13)
(0 -5.168534224e-15 -2.146927179e-13)
(0 5.985796018e-15 -1.889670783e-13)
(0 1.310293107e-14 -1.658215853e-13)
(0 1.736513434e-14 -1.452442158e-13)
(0 1.963406383e-14 -1.270942124e-13)
(0 2.053289452e-14 -1.111682523e-13)
(0 2.05092381e-14 -9.724032147e-14)
(0 1.988240673e-14 -8.508465915e-14)
(0 1.887845761e-14 -7.448810023e-14)
(0 1.765595202e-14 -6.525596118e-14)
(0 1.632477855e-14 -5.721411782e-14)
(0 1.495985332e-14 -5.020893311e-14)
(0 1.361106393e-14 -4.410605131e-14)
(0 1.231047239e-14 -3.878866715e-14)
(0 1.107752328e-14 -3.415562397e-14)
(0 9.922803013e-15 -3.01195374e-14)
(0 8.850747283e-15 -2.660504638e-14)
(0 7.861585228e-15 -2.354723697e-14)
(0 6.952729766e-15 -2.089025234e-14)
(0 6.119765951e-15 -1.858608467e-14)
(0 5.357147613e-15 -1.659353566e-14)
(0 4.65868236e-15 -1.487732915e-14)
(0 4.017863102e-15 -1.340735795e-14)
(0 3.428088436e-15 -1.215804845e-14)
(0 2.882802666e-15 -1.110782753e-14)
(0 2.375577893e-15 -1.023867878e-14)
(0 1.900154501e-15 -9.535776379e-15)
(0 1.450451915e-15 -8.987187459e-15)
(0 1.020558372e-15 -8.583634978e-15)
(0 6.047052697e-16 -8.318315043e-15)
(0 1.997878451e-16 -8.186763839e-15)