/*--------------------------------*- C++ -*----------------------------------*\
  =========                 |
  \\      /  F ield         | OpenFOAM: The Open Source CFD Toolbox
   \\    /   O peration     | Website:  https://openfoam.org
    \\  /    A nd           | Version:  6
     \\/     M anipulation  |
\*---------------------------------------------------------------------------*/
FoamFile
{
    version     2.0;
    format      ascii;
    class       volScalarField;
    location    "0.17";
    object      ViscousDissipation;
}
// * * * * * * * * * * * * * * * * * * * * * * * * * * * * * * * * * * * * * //

dimensions      [1 -1 -3 0 0 0 0];

internalField   nonuniform List<scalar> 
2500
(
14.83538436
10.65260584
2.656872868
1.492264751
0.1193179353
0.1188334284
0.2073716833
0.006661985695
0.002554583206
7.370400139e-23
6.220130964e-24
1.004869147e-23
1.239705748e-23
1.296825697e-23
1.22706782e-23
1.092917744e-23
9.399932274e-24
7.933807704e-24
6.635059944e-24
5.526914068e-24
4.596460783e-24
3.819091225e-24
3.169583517e-24
2.626062059e-24
2.17070435e-24
1.789231411e-24
1.470117513e-24
1.203882669e-24
9.82565154e-25
7.993636793e-25
6.484061681e-25
5.246011681e-25
4.235377806e-25
3.414113157e-25
2.749612315e-25
2.214144751e-25
1.784314262e-25
1.440538864e-25
1.166555739e-25
9.489588962e-26
7.767763886e-26
6.410916772e-26
5.34711106e-26
4.518772274e-26
3.880260578e-26
3.395853495e-26
3.038106214e-26
2.786561597e-26
2.626829482e-26
2.713891703e-26
5.001666071
10.5625068
5.469114321
2.308996815
0.3911454329
0.02237924442
0.01195928799
0.0229556894
0.001074958444
7.886627242e-23
9.901056896e-24
1.301173634e-23
1.45091376e-23
1.430899538e-23
1.303651082e-23
1.132481452e-23
9.58424677e-24
8.010302149e-24
6.662941772e-24
5.536320697e-24
4.6008515e-24
3.823402538e-24
3.174920689e-24
2.632113277e-24
2.176842031e-24
1.794932463e-24
1.475067323e-24
1.2079536e-24
9.857597892e-25
8.017600327e-25
6.501165762e-25
5.257456711e-25
4.242290365e-25
3.417474758e-25
2.750237604e-25
2.212687296e-25
1.781285576e-25
1.436331971e-25
1.161468538e-25
9.432149831e-26
7.705425214e-26
6.344918261e-26
5.278374314e-26
4.447984537e-26
3.807936931e-26
3.322380284e-26
2.963763407e-26
2.711492104e-26
2.551359524e-26
3.937691714e-26
1.369692323
5.133442517
7.707760235
5.907176094
2.080294719
0.3098714627
0.02127406461
0.01006389068
0.001588884643
9.161717257e-23
1.941590906e-23
2.009163734e-23
1.921000255e-23
1.711217641e-23
1.454678053e-23
1.205924184e-23
9.902551899e-24
8.1293892e-24
6.699133544e-24
5.545159944e-24
4.605212927e-24
3.830473379e-24
3.18535698e-24
2.644480608e-24
2.189504333e-24
1.806688554e-24
1.485241273e-24
1.216289589e-24
9.922783376e-25
8.066350675e-25
6.535881947e-25
5.280656652e-25
4.256309908e-25
3.424332444e-25
2.751598514e-25
2.209880754e-25
1.775347729e-25
1.428056126e-25
1.151454002e-25
9.319101225e-26
7.582805794e-26
6.215195968e-26
5.1433759e-26
4.309065969e-26
3.666111475e-26
3.178413958e-26
2.818247474e-26
2.564911188e-26
2.404110929e-26
6.311647659e-26
1.743267295
0.1691017241
4.147251006
7.333384745
5.928948599
1.211538596
0.01920124969
0.008693922727
0.0146543563
1.20006752e-22
4.114425697e-23
3.422433719e-23
2.753610507e-23
2.156762347e-23
1.67036652e-23
1.298843269e-23
1.024261465e-23
8.220977013e-24
6.705526445e-24
5.535128103e-24
4.602051155e-24
3.838101565e-24
3.20096495e-24
2.664014149e-24
2.209653263e-24
1.825325239e-24
1.501270652e-24
1.229345613e-24
1.002439623e-24
8.142114919e-25
6.58980036e-25
5.316801783e-25
4.278389545e-25
3.435508584e-25
2.754453495e-25
2.206459892e-25
1.76723486e-25
1.416457118e-25
1.137275323e-25
9.158268251e-26
7.407921596e-26
6.029943103e-26
4.950467391e-26
4.11050578e-26
3.463389943e-26
2.972653662e-26
2.610313129e-26
2.355496943e-26
2.193782657e-26
9.692568354e-26
3.451138464
1.727131568
0.3920684421
4.184923888
7.97271346
3.454349984
0.1120792679
0.01934331579
0.06157452663
1.925671354e-22
9.264112761e-23
6.177869273e-23
4.122459058e-23
2.777915197e-23
1.920809441e-23
1.382360448e-23
1.041359476e-23
8.178835903e-24
6.629939281e-24
5.48386695e-24
4.583787067e-24
3.845246904e-24
3.223131253e-24
2.692663496e-24
2.239066449e-24
1.852235446e-24
1.524166657e-24
1.247825634e-24
1.016724627e-24
8.248188737e-25
6.665240367e-25
5.367611461e-25
4.309899136e-25
3.45218374e-25
2.759892505e-25
2.203482469e-25
1.758005377e-25
1.402611114e-25
1.120034139e-25
8.960944941e-26
7.192337468e-26
5.800973221e-26
4.711681975e-26
3.864525185e-26
3.212149263e-26
2.717598649e-26
2.352545132e-26
2.095881069e-26
1.932999214e-26
1.387657803e-25
3.632464547
5.502005572
0.9826427971
0.9691233747
6.569553604
7.053997546
0.9399857394
0.01538110222
0.02499482642
4.426893087e-22
2.245539021e-22
1.166410007e-22
6.28896714e-23
3.540470175e-23
2.135149967e-23
1.406752273e-23
1.014366903e-23
7.873834818e-24
6.41879455e-24
5.373627736e-24
4.547909447e-24
3.85485992e-24
3.256021555e-24
2.734196678e-24
2.280667838e-24
1.88951658e-24
1.555365192e-24
1.272685826e-24
1.035762561e-24
8.388737404e-25
6.765039419e-25
5.435128672e-25
4.352430454e-25
3.475712321e-25
2.769161501e-25
2.202160793e-25
1.74887916e-25
1.387766503e-25
1.101016358e-25
8.740388071e-26
6.949693748e-26
5.542277587e-26
4.441320971e-26
3.585691936e-26
2.927179903e-26
2.428219469e-26
2.060053682e-26
1.801279844e-26
1.637062832e-26
1.861019393e-25
2.164437657
6.779645567
4.669338795
0.3351740718
3.998315852
10.64425016
3.624743597
0.003717558716
0.07413253498
1.764093529e-21
6.02824978e-22
2.33687857e-22
9.596444946e-23
4.286692003e-23
2.178423252e-23
1.302534858e-23
9.135407231e-24
7.197761197e-24
6.043640005e-24
5.205654865e-24
4.504329628e-24
3.877497016e-24
3.308297902e-24
2.794985457e-24
2.338868825e-24
1.940107524e-24
1.5967749e-24
1.305147197e-24
1.060331841e-24
8.568786304e-25
6.892558089e-25
5.521746189e-25
4.40784088e-25
3.507677451e-25
2.783722339e-25
2.203921703e-25
1.741294047e-25
1.373394463e-25
1.081735351e-25
8.512167853e-26
6.69597349e-26
5.270210626e-26
4.156062044e-26
3.290957913e-26
2.625660799e-26
2.121878001e-26
1.750343226e-26
1.489304515e-26
1.32365986e-26
2.360525463e-25
0.8485720123
4.714891335
7.838277496
2.562081891
1.283468649
10.71113765
8.099164627
0.3971378805
0.3593129896
4.191000414e-21
2.32481664e-21
5.085540793e-22
1.396319456e-22
4.602282846e-23
1.868999022e-23
1.009464166e-23
7.243564279e-24
6.15269058e-24
5.542852471e-24
5.019000092e-24
4.483702672e-24
3.934928921e-24
3.394634828e-24
2.884604442e-24
2.419774854e-24
2.007834994e-24
1.650764298e-24
1.34666574e-24
1.091329538e-24
8.793960056e-25
7.051470741e-25
5.630040304e-25
4.478118419e-25
3.549776671e-25
2.805151003e-25
2.21031156e-25
1.736813725e-25
1.361097362e-25
1.063839436e-25
8.293225998e-26
6.448540577e-26
5.002507541e-26
3.873957373e-26
2.998639764e-26
2.326124607e-26
1.817279129e-26
1.442251653e-26
1.178890715e-26
1.011791605e-26
2.855588668e-25
0.08686706361
1.954764222
8.004637261
6.286558387
0.2229730393
6.830960844
10.7938881
2.961910616
0.8141758959
3.757695851e-20
4.776516008e-21
7.964614432e-22
1.678120265e-22
4.030018703e-23
1.161758617e-23
5.560665696e-24
4.785187221e-24
4.968644771e-24
5.065975738e-24
4.9071733e-24
4.543601063e-24
4.062335934e-24
3.536412051e-24
3.015973536e-24
2.531144348e-24
2.097327137e-24
1.720078405e-24
1.398865635e-24
1.129721898e-24
9.070128593e-25
7.245514117e-25
5.76258899e-25
4.565244448e-25
3.603711649e-25
2.835042389e-25
2.222908416e-25
1.737042518e-25
1.352523305e-25
1.049024609e-25
8.100977232e-26
6.225212551e-26
4.757328605e-26
3.613451255e-26
2.727412525e-26
2.04743043e-26
1.533425737e-26
1.154890852e-26
8.892288956e-27
7.207004168e-27
3.315675872e-25
0.1933871574
0.3508219841
5.190043191
9.625289907
2.256768086
2.883447158
15.08178225
14.20852824
60.66826916
1.431990336e-20
9.171337206e-21
1.213177789e-21
1.989220592e-22
3.309948341e-23
4.415459664e-24
1.395858531e-24
2.763568361e-24
4.1645847e-24
4.888868899e-24
5.020867876e-24
4.768190035e-24
4.307460966e-24
3.760960903e-24
3.204799096e-24
2.682000896e-24
2.213752861e-24
1.807666727e-24
1.463426961e-24
1.176471342e-24
9.402930259e-25
7.478170146e-25
5.921753144e-25
4.671033957e-25
3.671062422e-25
2.87490304e-25
2.243223815e-25
1.743530687e-25
1.349271778e-25
1.038938849e-25
7.952330888e-26
6.043258032e-26
4.552232552e-26
3.392331188e-26
2.495240895e-26
1.807678069e-26
1.288518819e-26
9.065356924e-27
6.386454267e-27
4.687461816e-27
3.712161976e-25
0.2649543167
0.1514991286
1.532421511
10.00723552
7.610572976
0.2832856168
15.0723495
15.4526896
335.4460961
2.581889315e-20
3.877835435e-21
7.801931355e-22
1.637182751e-22
2.935130072e-23
2.867798136e-24
5.774908171e-25
2.606003528e-24
4.439955216e-24
5.367520254e-24
5.547561184e-24
5.258757797e-24
4.725953738e-24
4.099141701e-24
3.468249991e-24
2.881881867e-24
2.362383851e-24
1.916423259e-24
1.541929276e-24
1.232441131e-24
9.797180265e-25
7.752288084e-25
6.109423776e-25
4.796954686e-25
3.753146885e-25
2.926032358e-25
2.272594914e-25
1.757671307e-25
1.352791919e-25
1.035080035e-25
7.862658354e-26
5.918349385e-26
4.403114227e-26
3.226651631e-26
2.318290829e-26
1.623109399e-26
1.098850592e-26
7.135107804e-27
4.434848874e-27
2.722858372e-27
4.02010522e-25
0.1886209408
0.2329984829
0.07223596818
5.831651484
14.1275991
2.911235217
9.150615863
20.28450286
692.5620652
6.284705964e-21
2.07009535e-21
5.826682027e-22
1.643326109e-22
4.32410695e-23
1.139388983e-23
5.291620013e-24
5.487321265e-24
6.429822027e-24
6.846167597e-24
6.674783798e-24
6.117912601e-24
5.374052846e-24
4.581723234e-24
3.823066944e-24
3.139810155e-24
2.548018948e-24
2.048857597e-24
1.635660648e-24
1.298282642e-24
1.025619041e-24
8.069659633e-25
6.326742332e-25
4.943929218e-25
3.850868212e-25
2.989394581e-25
2.312069328e-25
1.78059153e-25
1.36427672e-25
1.038691287e-25
7.844749147e-26
5.863517729e-26
4.323157291e-26
3.129684373e-26
2.209878023e-26
1.507055505e-26
9.777508041e-27
5.891363609e-27
3.170558505e-27
1.446191658e-27
4.219836404e-25
0.1156999093
0.1484012971
0.05755380901
1.568014219
15.07763481
13.14158572
3.742764847
27.87523454
1731.115388
1.315522771e-21
1.042856403e-21
4.746138863e-22
1.884606691e-22
7.174872584e-23
2.971260676e-23
1.609135674e-23
1.199596535e-23
1.055843759e-23
9.591614958e-24
8.559778408e-24
7.434976135e-24
6.301234831e-24
5.235533935e-24
4.283483809e-24
3.463146095e-24
2.774340081e-24
2.206729361e-24
1.745407824e-24
1.374313161e-24
1.078104072e-24
8.430568392e-25
6.573805886e-25
5.11212703e-25
3.964555116e-25
3.065485719e-25
2.362286857e-25
1.813042638e-25
1.384557928e-25
1.050658883e-25
7.90781076e-26
5.888168412e-26
4.321862567e-26
3.110958022e-26
2.179517216e-26
1.468994602e-26
9.346520192e-27
5.427996548e-27
2.687068729e-27
9.506791164e-28
4.298260009e-25
0.07977612407
0.0750473915
0.08553614497
0.08253906818
9.62493755
25.01918434
1.178296123
32.20912535
3810.145149
9.019544765e-22
8.305157554e-22
4.665368104e-22
2.326295207e-22
1.118826558e-22
5.675779436e-23
3.292333256e-23
2.238109377e-23
1.708136785e-23
1.378894957e-23
1.131902948e-23
9.277716246e-24
7.54482788e-24
6.080189433e-24
4.859301509e-24
3.856472178e-24
3.043271979e-24
2.390681733e-24
1.87124591e-24
1.46039386e-24
1.13698552e-24
8.833342641e-25
6.849374241e-25
5.300757579e-25
4.093803162e-25
3.154202404e-25
2.423364613e-25
1.855295324e-25
1.414008172e-25
1.071419403e-25
8.05657963e-26
5.997224962e-26
4.404220355e-26
3.17545499e-26
2.232140565e-26
1.513788671e-26
9.743414782e-27
5.792189021e-27
3.030996848e-27
1.282550458e-27
4.249777183e-25
0.06473708978
0.0553604362
0.07475415728
0.08098486076
3.473032851
29.61020132
6.143639076
31.94863442
7276.815724
8.349337492e-22
8.30534763e-22
5.315467246e-22
3.034962988e-22
1.664338609e-22
9.340426109e-23
5.620894015e-23
3.693694788e-23
2.620686036e-23
1.957289689e-23
1.503218877e-23
1.168958171e-23
9.126674853e-24
7.125584231e-24
5.554257275e-24
4.320601414e-24
3.354400046e-24
2.599905827e-24
2.012345848e-24
1.555818481e-24
1.201714281e-24
9.273948344e-25
7.150602468e-25
5.50788074e-25
4.237329643e-25
3.254723138e-25
2.494794913e-25
1.90704896e-25
1.452458654e-25
1.100884105e-25
8.290620689e-26
6.190476463e-26
4.570099277e-26
3.323036268e-26
2.367553273e-26
1.641165156e-26
1.096464243e-26
6.979634988e-27
4.197419724e-27
2.436459002e-27
4.076759102e-25
0.05574186641
0.05764386396
0.0616550374
0.2239988464
0.3495550178
23.49525352
19.87704893
25.48561034
12159.67559
1.082323489e-21
1.044418818e-21
6.900810363e-22
4.169320161e-22
2.430086783e-22
1.42787886e-22
8.72217203e-23
5.620564587e-23
3.817749354e-23
2.705322934e-23
1.974650676e-23
1.468800638e-23
1.105053047e-23
8.369817841e-24
6.364647884e-24
4.851737455e-24
3.704480902e-24
2.831862249e-24
2.166817267e-24
1.659223896e-24
1.271327428e-24
9.745667649e-25
7.472829533e-25
5.730256749e-25
4.392859154e-25
3.365416058e-25
2.575368127e-25
1.967365654e-25
1.499142172e-25
1.138389486e-25
8.603897955e-26
6.462204695e-26
4.813922624e-26
3.548160297e-26
2.580188751e-26
1.845502531e-26
1.295333615e-26
8.932839647e-27
6.128318104e-27
4.354021229e-27
3.789523968e-25
0.04582077452
0.05735436232
0.04867676682
0.1947029943
0.1505869597
11.506084
36.69429848
13.71256653
17720.26835
1.744220395e-21
1.576428146e-21
9.942094102e-22
5.989170341e-22
3.535342161e-22
2.099812618e-22
1.279983375e-22
8.096300774e-23
5.326636602e-23
3.630947824e-23
2.547104774e-23
1.825966826e-23
1.329877201e-23
9.797133128e-24
7.278120528e-24
5.440797037e-24
4.087074425e-24
3.08208513e-24
2.331604758e-24
1.768534556e-24
1.344417343e-24
1.023891593e-24
7.809460036e-25
5.963262841e-25
4.557060876e-25
3.483790125e-25
2.663134526e-25
2.034641052e-25
1.552671812e-25
1.18268302e-25
8.984694908e-26
6.801160432e-26
5.124693678e-26
3.839950677e-26
2.859212398e-26
2.115964189e-26
1.560089497e-26
1.154289469e-26
8.7144931e-27
6.925825947e-27
3.405800848e-25
0.03362556958
0.04533102353
0.05361718043
0.1006739359
0.6014846217
2.868470379
47.35717019
2.743656718
22084.39656
2.573523239e-21
2.647330742e-21
1.52838138e-21
8.853966704e-22
5.133966078e-22
3.012862741e-22
1.809420698e-22
1.120263612e-22
7.168815577e-23
4.734971355e-23
3.215722359e-23
2.235113854e-23
1.582787832e-23
1.137574392e-23
8.272647964e-24
6.072941155e-24
4.492338949e-24
3.344098697e-24
2.502457623e-24
1.880953872e-24
1.419130886e-24
1.074125501e-24
8.151979505e-25
6.200906187e-25
4.725560091e-25
3.606507413e-25
2.755419299e-25
2.106623388e-25
1.611064684e-25
1.231951779e-25
9.415948043e-26
7.190940844e-26
5.486412467e-26
4.182647345e-26
3.189002186e-26
2.437003567e-26
1.875223447e-26
1.465488438e-26
1.180108659e-26
9.997029571e-27
2.949697196e-25
0.02033222223
0.02800569306
0.05905412187
0.04919524587
0.5703988132
0.4786911033
39.58672975
1.608817014
22619.50557
3.837627999e-21
4.290465039e-21
2.361992723e-21
1.314077728e-21
7.389727036e-22
4.229912677e-22
2.481562828e-22
1.499215103e-22
9.344336781e-23
6.004097107e-23
3.966872016e-23
2.685626295e-23
1.856333267e-23
1.305590255e-23
9.315884705e-24
6.72742737e-24
4.907054222e-24
3.609483793e-24
2.673995088e-24
1.993015843e-24
1.493206935e-24
1.123765757e-24
8.490141219e-25
6.435960423e-25
4.893044137e-25
3.729471752e-25
2.848902357e-25
2.180489605e-25
1.671817381e-25
1.283898839e-25
9.876028317e-26
7.610791207e-26
5.878897762e-26
4.556447349e-26
3.550006002e-26
2.789235541e-26
2.221461547e-26
1.807680421e-26
1.519656607e-26
1.337638419e-26
2.450222026e-25
0.008528860374
0.01380335858
0.04782072368
0.05154328104
0.2894797794
1.667415716
24.72524121
13.08326588
18533.53919
6.921488494e-21
6.890197183e-21
3.639430829e-21
1.936608254e-21
1.047377055e-21
5.800369959e-22
3.305886542e-22
1.944534598e-22
1.181240619e-22
7.402684607e-23
4.774852483e-23
3.160391953e-23
2.139564026e-23
1.476899056e-23
1.036527002e-23
7.377956346e-24
5.314955586e-24
3.868135683e-24
2.839888263e-24
2.100708441e-24
1.564058976e-24
1.171106407e-24
8.812351595e-25
6.660244266e-25
5.053475707e-25
3.848002681e-25
2.939768921e-25
2.252982299e-25
1.732035075e-25
1.335867977e-25
1.033996411e-25
8.036815312e-26
6.27899131e-26
4.938706356e-26
3.919942185e-26
3.150636832e-26
2.57696503e-26
2.159157016e-26
1.868473649e-26
1.684825125e-26
1.939450577e-25
0.001652123318
0.007262220841
0.02936496877
0.0968127759
0.09519273069
4.031688046
13.43316071
35.40449344
11573.86533
1.50558152e-20
1.142626872e-20
5.620826217e-21
2.818212795e-21
1.45236759e-21
7.735298925e-22
4.268640964e-22
2.442097537e-22
1.447150252e-22
8.865290756e-23
5.599369308e-23
3.635124216e-23
2.417979671e-23
1.642867671e-23
1.136933502e-23
7.993709687e-24
5.697463175e-24
4.108748424e-24
2.993173676e-24
2.199675094e-24
1.62890553e-24
1.214324499e-24
9.106260423e-25
6.865044959e-25
5.200414031e-25
3.957093615e-25
3.02392851e-25
2.320603991e-25
1.788609905e-25
1.385011587e-25
1.078104933e-25
8.443533662e-26
6.662079873e-26
5.305433722e-26
4.275274034e-26
3.498004654e-26
2.918776714e-26
2.497139082e-26
2.203904613e-26
2.018686428e-26
1.450446197e-25
0.0008108897313
0.007610313806
0.01745890619
0.1719770062
0.2321572658
5.399127212
7.920166989
59.84633806
4112.761066
3.788820905e-20
1.923796631e-20
8.583113613e-21
4.002578806e-21
1.952198893e-21
9.965580868e-22
5.318456699e-22
2.960748652e-22
1.714401713e-22
1.029261162e-22
6.38505461e-23
4.078813618e-23
2.674076263e-23
1.793521399e-23
1.227064161e-23
8.541238761e-24
6.034859437e-24
4.319539506e-24
3.126698776e-24
2.28549108e-24
1.684944934e-24
1.251593911e-24
9.359532396e-25
7.041667642e-25
5.327428107e-25
4.051740358e-25
3.097289651e-25
2.379856821e-25
1.838437212e-25
1.428490698e-25
1.117272765e-25
8.805682474e-26
7.003829748e-26
5.632977245e-26
4.592855685e-26
3.808572119e-26
3.224412716e-26
2.799350483e-26
2.503819431e-26
2.317185249e-26
1.01507782e-25
0.002805254155
0.008700893912
0.02605382464
0.1567511591
0.9107569068
4.889527131
12.40323681
50.15171312
331.8998309
6.880571701e-20
3.036277408e-20
1.260377494e-20
5.457563897e-21
2.513542774e-21
1.229441168e-21
6.353093873e-22
3.449184413e-22
1.957287357e-22
1.155419839e-22
7.064486698e-23
4.455902778e-23
2.888721141e-23
1.918366456e-23
1.301058435e-23
8.987243254e-24
6.307897715e-24
4.489187981e-24
3.233676504e-24
2.353997993e-24
1.72956266e-24
1.281218545e-24
9.560741455e-25
7.182067366e-25
5.428568473e-25
4.127312736e-25
3.156067263e-25
2.427507448e-25
1.878651427e-25
1.46369038e-25
1.149059754e-25
9.100106904e-26
7.281994332e-26
5.899763991e-26
4.851620457e-26
4.061655312e-26
3.473477413e-26
3.045608677e-26
2.748186162e-26
2.560385713e-26
6.618845555e-26
0.002860295323
0.00614388832
0.03517444012
0.05116839386
0.8733917525
3.087096477
3.523704076
3.814153232
50.61379463
2.943463005e-20
5.276638964e-20
1.789840946e-20
7.044077445e-21
3.055387138e-21
1.435439699e-21
7.212754165e-22
3.837298695e-22
2.144189708e-22
1.250243793e-22
7.566242785e-23
4.73064092e-23
3.043457094e-23
2.007606219e-23
1.353585872e-23
9.302056497e-24
6.499712098e-24
4.607902146e-24
3.308296418e-24
2.401663547e-24
1.760550486e-24
1.301771385e-24
9.700296216e-25
7.279498419e-25
5.49884858e-25
4.179930945e-25
3.197091275e-25
2.460850524e-25
1.906858413e-25
1.48842989e-25
1.171435045e-25
9.307576036e-26
7.47813415e-26
6.087946069e-26
5.034168156e-26
4.240194586e-26
3.649168931e-26
3.219303063e-26
2.920529785e-26
2.731899282e-26
4.141403929e-26
0.001008000395
0.003349333099
0.02789691618
0.0450040074
0.2932322939
0.878936367
0.9387815752
5.71691443
77.31970341
0.1180443743
3.07017959e-20
2.474328181e-20
8.416844946e-21
3.423613039e-21
1.5584334e-21
7.694300761e-22
4.047868341e-22
2.243818978e-22
1.300231307e-22
7.828681433e-23
4.873483651e-23
3.12352534e-23
2.05360329e-23
1.380572134e-23
9.463351193e-24
6.597762857e-24
4.668471104e-24
3.34631109e-24
2.425920036e-24
1.776309665e-24
1.312222055e-24
9.771282226e-25
7.329101649e-25
5.534677736e-25
4.206802025e-25
3.218080755e-25
2.4779411e-25
1.921338937e-25
1.501145412e-25
1.182944501e-25
9.414341092e-26
7.579085429e-26
6.184799043e-26
5.128108209e-26
4.332054215e-26
3.739544993e-26
3.30863522e-26
3.009154009e-26
2.820094649e-26
2.882611937e-26
0.001001755216
0.003303950814
0.02741733279
0.04344332616
0.2811896439
0.7517009845
0.6842613135
7.161021037
33.5016619
0.5762321827
3.428322181e-20
1.988219682e-20
7.70943295e-21
3.297836422e-21
1.53149748e-21
7.625161888e-22
4.026991738e-22
2.236591773e-22
1.297433058e-22
7.81680798e-23
4.86804975e-23
3.120877174e-23
2.052243454e-23
1.37984294e-23
9.459299043e-24
6.595444522e-24
4.667113049e-24
3.345500273e-24
2.425428431e-24
1.776007766e-24
1.312034522e-24
9.77010347e-25
7.328349801e-25
5.53418805e-25
4.206472898e-25
3.217849141e-25
2.477767778e-25
1.921199539e-25
1.501024891e-25
1.182833681e-25
9.413275154e-26
7.578030218e-26
6.183737535e-26
5.127032327e-26
4.330961303e-26
3.738435601e-26
3.307511732e-26
3.008019817e-26
2.818967059e-26
2.92673143e-26
0.002759039029
0.005924664056
0.03332104343
0.04784677267
0.8047911632
2.232934191
2.79918026
4.913936154
56.75699233
1.231142923e-20
3.765462366e-20
1.509458308e-20
6.402911882e-21
2.891665921e-21
1.38941496e-21
7.070266051e-22
3.788760357e-22
2.126077081e-22
1.242892848e-22
7.534076915e-23
4.715604536e-23
3.036015749e-23
2.003740684e-23
1.351494509e-23
9.290353664e-24
6.492979897e-24
4.603941491e-24
3.305923788e-24
2.400221328e-24
1.759663178e-24
1.301219575e-24
9.696826208e-25
7.277285807e-25
5.497409089e-25
4.178965286e-25
3.196413427e-25
2.460344611e-25
1.906452379e-25
1.488079222e-25
1.171112598e-25
9.304471904e-26
7.475057355e-26
6.08484663e-26
5.031022628e-26
4.236995607e-26
3.645918645e-26
3.216009043e-26
2.917202587e-26
2.72859046e-26
4.272284413e-26
0.002633533608
0.008282514581
0.02431004519
0.1467367822
0.863083345
4.207987607
11.55300022
48.75431538
455.45178
6.307653845e-20
2.606113022e-20
1.121127155e-20
5.038825675e-21
2.383570077e-21
1.186724774e-21
6.203215277e-22
3.392869497e-22
1.934626175e-22
1.145677228e-22
7.019931971e-23
4.434353588e-23
2.877770024e-23
1.912557921e-23
1.297863635e-23
8.969130301e-24
6.297369044e-24
4.482942553e-24
3.22991097e-24
2.351697812e-24
1.7281425e-24
1.280333424e-24
9.555170972e-25
7.17851791e-25
5.426264674e-25
4.125773449e-25
3.154992452e-25
2.42670974e-25
1.878014101e-25
1.463141263e-25
1.148554838e-25
9.095237716e-26
7.27715521e-26
5.894875116e-26
4.846645277e-26
4.056583496e-26
3.46831411e-26
3.04036786e-26
2.742886637e-26
2.555112163e-26
6.832128761e-26
0.0007374994062
0.007251544531
0.01636161294
0.1632116286
0.2311801192
5.072782723
8.05835138
56.61614444
4195.842466
3.654600612e-20
1.769527332e-20
7.967865813e-21
3.775322141e-21
1.868904894e-21
9.652277173e-22
5.195555778e-22
2.91008519e-22
1.692388281e-22
1.019180039e-22
6.336507568e-23
4.054324846e-23
2.661199144e-23
1.786499911e-23
1.223114989e-23
8.518441924e-24
6.021414875e-24
4.311471727e-24
3.121790076e-24
2.282471716e-24
1.683071469e-24
1.250422734e-24
9.352154424e-25
7.036972556e-25
5.324392394e-25
4.049725119e-25
3.095894565e-25
2.378830962e-25
1.837623859e-25
1.427792807e-25
1.116631172e-25
8.799478057e-26
6.997637017e-26
5.626691316e-26
4.586430335e-26
3.801996676e-26
3.217697471e-26
2.792517642e-26
2.496897694e-26
2.310290517e-26
1.043944729e-25
0.001681492419
0.007086682074
0.02851766291
0.09416647008
0.08822418584
3.990041263
13.60954771
35.31265057
11419.24764
1.51361239e-20
1.097590713e-20
5.39200153e-21
2.713529772e-21
1.406723176e-21
7.537825434e-22
4.181800778e-22
2.402739553e-22
1.428633822e-22
8.774623226e-23
5.553180009e-23
3.610702263e-23
2.4046256e-23
1.63534714e-23
1.13258998e-23
7.96808744e-24
5.682084309e-24
4.099388553e-24
2.987414863e-24
2.196102473e-24
1.626675306e-24
1.212925299e-24
9.097438048e-25
6.859442801e-25
5.196812397e-25
3.954725357e-25
3.022309991e-25
2.319430609e-25
1.787690766e-25
1.38422827e-25
1.077385246e-25
8.436545561e-26
6.655059428e-26
5.298256833e-26
4.267888989e-26
3.490403619e-26
2.910977697e-26
2.489174731e-26
2.195815504e-26
2.010616914e-26
1.485919344e-25
0.008553340551
0.01368528692
0.04730024016
0.050854939
0.2900483811
1.706387614
24.62018767
13.68180325
18506.64061
7.166788182e-21
6.859513364e-21
3.58127037e-21
1.896777965e-21
1.025463695e-21
5.68888848e-22
3.250417379e-22
1.916771648e-22
1.167057325e-22
7.328228355e-23
4.734612081e-23
3.138022701e-23
2.12680551e-23
1.469456076e-23
1.032100597e-23
7.351207505e-24
5.298580531e-24
3.858009189e-24
2.833578439e-24
2.096756013e-24
1.561574867e-24
1.169541955e-24
8.802482005e-25
6.65399816e-25
5.049492325e-25
3.845418419e-25
2.938035333e-25
2.251751973e-25
1.731089392e-25
1.335071004e-25
1.033265289e-25
8.029673609e-26
6.271746145e-26
4.931220692e-26
3.912163253e-26
3.142562971e-26
2.568624648e-26
2.150595499e-26
1.859745515e-26
1.676099518e-26
1.980412697e-25
0.02028157282
0.0278583579
0.0587438843
0.04903773444
0.5766141161
0.4850120201
39.52342285
1.623515307
22766.12608
3.969539028e-21
4.381319986e-21
2.362104412e-21
1.301790918e-21
7.292925332e-22
4.17077459e-22
2.448183327e-22
1.480776146e-22
9.242089785e-23
5.946533276e-23
3.933834701e-23
2.666291686e-23
1.84481282e-23
1.298617329e-23
9.273118969e-24
6.700914965e-24
4.890479114e-24
3.599057095e-24
2.667409515e-24
1.988847932e-24
1.490568671e-24
1.122097995e-24
8.479621546e-25
6.429335909e-25
4.888866063e-25
3.726811301e-25
2.847164734e-25
2.179295556e-25
1.670927105e-25
1.283162826e-25
9.869299381e-26
7.604157784e-26
5.872064278e-26
4.549269919e-26
3.542435007e-26
2.781278597e-26
2.213159929e-26
1.799094357e-26
1.510856447e-26
1.328813532e-26
2.495424149e-25
0.03346775417
0.04508169742
0.05326474186
0.1004854185
0.600810892
2.909658065
47.37455955
2.861057533
22119.01421
2.675148813e-21
2.68160766e-21
1.531449204e-21
8.810363382e-22
5.08911182e-22
2.98132832e-22
1.789673501e-22
1.108367696e-22
7.097651558e-23
4.692123804e-23
3.189635172e-23
2.219043651e-23
1.572782461e-23
1.131288752e-23
8.232872437e-24
6.047631149e-24
4.476171163e-24
3.333748299e-24
2.495828528e-24
1.876714006e-24
1.416427955e-24
1.072411153e-24
8.141178784e-25
6.194152442e-25
4.721363944e-25
3.603903337e-25
2.753783314e-25
2.105554723e-25
1.610308569e-25
1.231348867e-25
9.410479285e-26
7.185463789e-26
5.480617435e-26
4.176388998e-26
3.182237643e-26
2.429752281e-26
1.867541543e-26
1.457452655e-26
1.171806683e-26
9.913389547e-27
2.997815848e-25
0.04555144696
0.05697358904
0.04821434197
0.1931081869
0.1480739289
11.55709615
36.69400449
13.79225209
17667.58266
1.778435898e-21
1.590534605e-21
9.95600016e-22
5.967761183e-22
3.511766473e-22
2.082120085e-22
1.268148562e-22
8.020064149e-23
5.277914841e-23
3.599723029e-23
2.526985146e-23
1.812938228e-23
1.321408673e-23
9.741947492e-24
7.242105041e-24
5.417280981e-24
4.071728325e-24
3.07208806e-24
2.325112814e-24
1.764339199e-24
1.341724694e-24
1.022179276e-24
7.798699572e-25
5.956598915e-25
4.553002712e-25
3.481359869e-25
2.661694026e-25
2.033777202e-25
1.552120448e-25
1.18227832e-25
8.981102814e-26
6.797433657e-26
5.120515638e-26
3.835178935e-26
2.853813531e-26
2.109971292e-26
1.55357486e-26
1.147347407e-26
8.641857934e-27
6.85210437e-27
3.455495721e-25
0.05540349581
0.05723241372
0.0610566636
0.2223717882
0.3507513586
23.48000438
19.90410732
25.3786125
12138.06008
1.097039035e-21
1.047054156e-21
6.893322891e-22
4.153255644e-22
2.415686303e-22
1.417328007e-22
8.649747652e-23
5.571590277e-23
3.784585174e-23
2.682786019e-23
1.959317517e-23
1.458382519e-23
1.097995074e-23
8.322178234e-24
6.332622192e-24
4.830301265e-24
3.690201044e-24
2.822401971e-24
2.16059159e-24
1.65516085e-24
1.268703758e-24
9.728955708e-25
7.462372051e-25
5.723863323e-25
4.389068049e-25
3.363256721e-25
2.574200672e-25
1.966772392e-25
1.498854313e-25
1.138237613e-25
8.602704424e-26
6.460735832e-26
4.811860634e-26
3.545368813e-26
2.576645548e-26
1.841255303e-26
1.290471377e-26
8.879189975e-27
6.070886897e-27
4.294956184e-27
3.839492799e-25
0.06439857956
0.05501209748
0.07422655465
0.08105524044
3.468699495
29.56068225
6.134916615
31.88866326
7282.594612
8.335995851e-22
8.262317198e-22
5.294159157e-22
3.021093912e-22
1.654893281e-22
9.276173133e-23
5.576513921e-23
3.662328224e-23
2.598168534e-23
1.941058292e-23
1.491569317e-23
1.160668521e-23
9.068270686e-24
7.084839966e-24
5.52609651e-24
4.301308866e-24
3.341297273e-24
2.591087044e-24
2.006469584e-24
1.551948664e-24
1.199202354e-24
9.257941499e-25
7.140648993e-25
5.501896977e-25
4.233904832e-25
3.252908895e-25
2.493959384e-25
1.906776125e-25
1.45247899e-25
1.101026973e-25
8.292230996e-26
6.19166479e-26
4.570550799e-26
3.3226227e-26
2.36626437e-26
1.639063349e-26
1.093655101e-26
6.945769784e-27
4.159209415e-27
2.39600123e-27
4.125786917e-25
0.0794867328
0.07477556298
0.08534616811
0.08251211172
9.620797699
24.99882217
1.176613946
32.22519552
3816.268093
8.901982681e-22
8.241920094e-22
4.642284284e-22
2.315847004e-22
1.113072747e-22
5.639070062e-23
3.266242699e-23
2.218369292e-23
1.692883038e-23
1.367159241e-23
1.123012578e-23
9.211596729e-24
7.496520168e-24
6.045455796e-24
4.834680405e-24
3.839242902e-24
3.03136156e-24
2.382548503e-24
1.865764605e-24
1.456755073e-24
1.134613804e-24
8.818244588e-25
6.840066833e-25
5.29528206e-25
4.090814167e-25
3.152784238e-25
2.422900715e-25
1.855376141e-25
1.414366511e-25
1.07188527e-25
8.061271784e-26
6.001349827e-26
4.407468906e-26
3.177708028e-26
2.233399795e-26
1.514130692e-26
9.738876041e-27
5.78115876e-27
3.015077864e-27
1.263721061e-27
4.296777792e-25
0.115504508
0.1482860653
0.05759078724
1.568296638
15.08003909
13.14557521
3.748355756
27.89616691
1733.428136
1.305705688e-21
1.038272773e-21
4.729620931e-22
1.878712032e-22
7.148268219e-23
2.954194898e-23
1.59526612e-23
1.18752978e-23
1.045482633e-23
9.505727743e-24
8.491107723e-24
7.38177023e-24
6.261077853e-24
5.205880118e-24
4.261988732e-24
3.447818272e-24
2.763575377e-24
2.199282665e-24
1.74033842e-24
1.370924645e-24
1.075889061e-24
8.416504664e-25
6.565234124e-25
5.10722148e-25
3.962044048e-25
3.064492924e-25
2.362216115e-25
1.813494371e-25
1.385269569e-25
1.051462512e-25
7.915735264e-26
5.895387462e-26
4.328074689e-26
3.116053325e-26
2.183508712e-26
1.471971955e-26
9.367509881e-27
5.441824166e-27
2.695497812e-27
9.555029847e-28
4.342308326e-25
0.1886097226
0.2330347058
0.07239378549
5.835775659
14.12758927
2.911025486
9.152090651
20.29730722
693.5279099
6.281694423e-21
2.067007121e-21