/*--------------------------------*- C++ -*----------------------------------*\
  =========                 |
  \\      /  F ield         | OpenFOAM: The Open Source CFD Toolbox
   \\    /   O peration     | Website:  https://openfoam.org
    \\  /    A nd           | Version:  6
     \\/     M anipulation  |
\*---------------------------------------------------------------------------*/
FoamFile
{
    version     2.0;
    format      ascii;
    class       surfaceScalarField;
    location    "0.1";
    object      alphaPhi0.phase1;
}
// * * * * * * * * * * * * * * * * * * * * * * * * * * * * * * * * * * * * * //

dimensions      [0 3 -1 0 0 0 0];

internalField   nonuniform List<scalar> 
4900
(
-6.595274917e-21
-2.216437602e-21
2.569857337e-21
-4.945895575e-21
3.574797128e-21
-5.7331623e-22
3.522974363e-21
-1.399913395e-23
1.591554317e-21
4.302251877e-22
2.800557733e-24
2.008556796e-24
-3.675498333e-44
-4.479540406e-43
-6.521476102e-18
2.734480568e-18
-8.877717276e-21
4.467020838e-24
-8.801772541e-21
-7.594474347e-23
-8.651830843e-21
-1.49944486e-22
-8.433530312e-21
-2.183067986e-22
-8.154385602e-21
-2.791542448e-22
-7.82340886e-21
-3.309894539e-22
-7.450541445e-21
-3.728832633e-22
-7.046066241e-21
-4.04494155e-22
-6.62007617e-21
-4.26012084e-22
-6.182040748e-21
-4.380604567e-22
-5.74048908e-21
-4.415796754e-22
-5.302810112e-21
-4.377098921e-22
-4.875158681e-21
-4.27685215e-22
-4.462448779e-21
-4.127464805e-22
-4.068412713e-21
-3.940753709e-22
-3.695705215e-21
-3.72749456e-22
-3.34603403e-21
-3.497157201e-22
-3.02030194e-21
-3.257791222e-22
-2.718748895e-21
-3.01602488e-22
-2.441086391e-21
-2.777142729e-22
-2.186619154e-21
-2.545212416e-22
-1.954351577e-21
-2.323237252e-22
-1.743078061e-21
-2.113317135e-22
-1.551457631e-21
-1.916805823e-22
-1.378073951e-21
-1.73445689e-22
-1.221482308e-21
-1.566554099e-22
-1.080245294e-21
-1.413024406e-22
-9.529589315e-22
-1.273533481e-22
-8.382709052e-22
-1.147564706e-22
-7.348923823e-22
-1.034483248e-22
-6.416047333e-22
-9.335870743e-23
-5.572622631e-22
-8.441468397e-23
-4.807918781e-22
-7.654365287e-23
-4.111904447e-22
-6.96756545e-23
-3.475204408e-22
-6.374507725e-23
-2.889043736e-22
-5.869189236e-23
-2.345183179e-22
-5.446253242e-23
-1.835848258e-22
-5.101052062e-23
-1.353653275e-22
-4.829697908e-23
-8.915189057e-23
-4.6291271e-23
-4.425740647e-23
-4.497257273e-23
-4.433565074e-23
-5.815897833e-21
-1.19501095e-21
-1.839720794e-21
-4.219687907e-21
-2.331005951e-22
-2.396539504e-21
1.178394489e-23
-1.606493025e-22
1.995067851e-23
1.873336592e-23
5.324009492e-28
2.790837488e-27
-9.933520873e-19
1.951770329e-52
3.84620707e-18
1.158605289e-19
-8.9556027e-21
8.277335207e-25
-8.875742523e-21
-1.558104877e-22
-8.720183728e-21
-3.055149413e-22
-8.494370272e-21
-4.441379146e-22
-8.206216161e-21
-5.673317264e-22
-7.865300955e-21
-6.719336356e-22
-7.482153278e-21
-7.56065453e-22
-7.067587277e-21
-8.191001371e-22
-6.632129235e-21
-8.615154962e-22
-6.185565658e-21
-8.84674706e-22
-5.736625457e-21
-8.905757522e-22
-5.29279163e-21
-8.81604693e-22
-4.860225847e-21
-8.603169551e-22
-4.44378305e-21
-8.292600934e-22
-4.047091526e-21
-7.908424385e-22
-3.672675498e-21
-7.472456185e-22
-3.322100741e-21
-7.003750575e-22
-2.996127943e-21
-6.518407964e-22
-2.694862709e-21
-6.029607369e-22
-2.417894858e-21
-5.547791192e-22
-2.164422684e-21
-5.080942242e-22
-1.933360239e-21
-4.634906252e-22
-1.723427304e-21
-4.21372578e-22
-1.533222877e-21
-3.819962402e-22
-1.361283632e-21
-3.454992888e-22
-1.206129169e-21
-3.11927176e-22
-1.066295941e-21
-2.812557403e-22
-9.403617344e-22
-2.534102143e-22
-8.269624065e-22
-2.282808664e-22
-7.248023984e-22
-2.057356279e-22
-6.326603452e-22
-1.856301018e-22
-5.493908808e-22
-1.678153548e-22
-4.739235505e-22
-1.52143874e-22
-4.052595662e-22
-1.384740339e-22
-3.424669872e-22
-1.26673376e-22
-2.846747805e-22
-1.16620964e-22
-2.310661112e-22
-1.082090338e-22
-1.808711307e-22
-1.013441225e-22
-1.333595152e-22
-9.594782917e-23
-8.783316621e-23
-9.195729401e-23
-4.362045629e-23
-8.93252279e-23
-8.801788265e-23
-3.314278914e-21
-1.35183807e-21
-3.859070624e-21
-3.676482018e-21
-7.565335129e-22
-4.567937507e-21
-3.21737589e-25
-1.620475926e-21
-2.34692809e-25
-4.75557279e-24
1.373061871e-28
2.874687656e-25
-2.634486564e-19
1.577578315e-28
1.886511699e-18
-9.867505562e-20
-9.110861509e-21
-3.179564392e-24
-9.025409357e-21
-2.412671986e-22
-8.858784948e-21
-4.721490641e-22
-8.61754828e-21
-6.853894839e-22
-8.310808683e-21
-8.74091186e-22
-7.949429636e-21
-1.03333743e-21
-7.545190346e-21
-1.160334319e-21
-7.110009445e-21
-1.254315386e-21
-6.655298426e-21
-1.316265565e-21
-6.191478626e-21
-1.348538185e-21
-5.727667168e-21
-1.354435432e-21
-5.271516624e-21
-1.33780791e-21
-4.829181022e-21
-1.302709583e-21
-4.4053763e-21
-1.253126086e-21
-4.003504231e-21
-1.192779909e-21
-3.625812987e-21
-1.125006277e-21
-3.27357307e-21
-1.052688275e-21
-2.947253105e-21
-9.782378167e-22
-2.646685084e-21
-9.036094343e-22
-2.371212887e-21
-8.303354735e-22
-2.119821107e-21
-7.595734981e-22
-1.891243474e-21
-6.921589447e-22
-1.684051656e-21
-6.286581238e-22
-1.496726154e-21
-5.694183613e-22
-1.3277114e-21
-5.146133998e-22
-1.175457361e-21
-4.642831553e-22
-1.038449867e-21
-4.183676015e-22
-9.152317274e-22
-3.767349928e-22
-8.044164471e-22
-3.392048986e-22
-7.046961286e-22
-3.055666544e-22
-6.148448615e-22
-2.755938752e-22
-5.337186927e-22
-2.490556706e-22
-4.602530488e-22
-2.257251483e-22
-3.934583042e-22
-2.053857349e-22
-3.324140369e-22
-1.878357693e-22
-2.762623834e-22
-1.728917568e-22
-2.242008083e-22
-1.603906058e-22
-1.754745233e-22
-1.501911069e-22
-1.293687438e-22
-1.42174856e-22
-8.520093126e-23
-1.362467469e-22
-4.231298295e-23
-1.323350526e-22
-1.303910506e-22
-2.63205779e-21
-1.338267566e-21
-5.347716209e-21
-3.097538274e-21
-2.940366693e-21
-7.045584525e-21
-1.961095607e-22
-3.575060121e-21
-5.568646002e-25
-6.172587177e-22
-1.632129378e-29
2.15736457e-25
3.005539762e-25
1.666372294e-28
-6.689527479e-18
-3.480124912e-19
-9.350901778e-21
-4.047066386e-24
-9.256252318e-21
-3.359211466e-22
-9.071990912e-21
-6.564200101e-22
-8.806225409e-21
-9.511696289e-22
-8.470040959e-21
-1.210295168e-21
-8.076422686e-21
-1.426980049e-21
-7.639176326e-21
-1.597609789e-21
-7.171971376e-21
-1.72155415e-21
-6.687587541e-21
-1.800687852e-21
-6.197395112e-21
-1.838773629e-21
-5.711059902e-21
-1.840818138e-21
-5.236438214e-21
-1.812481485e-21
-4.779616129e-21
-1.759587846e-21
-4.345046792e-21
-1.687755787e-21
-3.93574501e-21
-1.60214613e-21
-3.553507041e-21
-1.507312642e-21
-3.199132382e-21
-1.407135161e-21
-2.872632383e-21
-1.304813748e-21
-2.573416911e-21
-1.20290441e-21
-2.300455089e-21
-1.103380232e-21
-2.052409386e-21
-1.007705429e-21
-1.82774439e-21
-9.169133161e-22
-1.624812763e-21
-8.316821273e-22
-1.441921393e-21
-7.524049594e-22
-1.277380856e-21
-6.792518649e-22
-1.129541149e-21
-6.12223339e-22
-9.968163573e-22
-5.511952648e-22
-8.777005807e-22
-4.959558807e-22
-7.707770716e-22
-4.462356041e-22
-6.747221956e-22
-4.017306565e-22
-5.88305523e-22
-3.621214482e-22
-5.103870881e-22
-3.270866248e-22
-4.399126275e-22
-2.963135918e-22
-3.759074215e-22
-2.695062326e-22
-3.174692093e-22
-2.463904274e-22
-2.637605266e-22
-2.267178856e-22
-2.140007176e-22
-2.102687074e-22
-1.67457797e-22
-1.968530131e-22
-1.234402761e-22
-1.863119026e-22
-8.128899344e-23
-1.785179419e-22
-4.036885875e-23
-1.73375332e-22
-1.708199559e-22
-1.777956334e-21
-1.177188862e-21
-6.264396146e-21
-1.342925482e-21
-4.228692577e-21
-7.252154376e-21
-1.730658569e-21
-5.943387855e-21
-4.212618268e-24
-2.053492525e-21
3.050936065e-27
2.040537719e-24
1.032531205e-25
1.049097409e-28
-9.221139564e-18
-8.897312511e-19
-9.684752132e-21
-3.734463962e-24
-9.576696758e-21
-4.439810055e-22
-9.366691203e-21
-8.664350935e-22
-9.065316878e-21
-1.252558578e-21
-8.686707767e-21
-1.588923788e-21
-8.247049262e-21
-1.866662873e-21
-7.763130041e-21
-2.081558087e-21
-7.251123868e-21
-2.2335941e-21
-6.725698329e-21
-2.3261518e-21
-6.1994679e-21
-2.365047028e-21
-5.682752351e-21
-2.357581132e-21
-5.183572652e-21
-2.311713015e-21
-4.707809863e-21
-2.235406752e-21
-4.259459895e-21
-2.136166056e-21
-3.840930916e-21
-2.020739479e-21
-3.453345556e-21
-1.894966323e-21
-3.096823747e-21
-1.763729121e-21
-2.77073291e-21
-1.630980436e-21
-2.473900053e-21
-1.499816683e-21
-2.204785453e-21
-1.372577678e-21
-1.961620666e-21
-1.250956349e-21
-1.742515168e-21
-1.136108091e-21
-1.545536447e-21
-1.028753124e-21
-1.368768302e-21
-9.292682271e-22
-1.210351711e-21
-8.377662767e-22
-1.068512017e-21
-7.541633985e-22
-9.415756264e-22
-6.782344133e-22
-8.279787861e-22
-6.096577159e-22
-7.262705269e-22
-5.480509407e-22
-6.351113813e-22
-4.929988068e-22
-5.532691373e-22
-4.44074469e-22
-4.796125751e-22
-4.008555803e-22
-4.131038982e-22
-3.629361239e-22
-3.527903754e-22
-3.299349174e-22
-2.977955684e-22
-3.015015489e-22
-2.473103993e-22
-2.773203676e-22
-2.005842291e-22
-2.571130354e-22
-1.569160495e-22
-2.406400419e-22
-1.156458366e-22
-2.27701503e-22
-7.614606303e-23
-2.18137488e-22
-3.781332302e-23
-2.118280759e-22
-2.086933246e-22
-6.983579921e-22
-9.111245031e-22
-4.157447916e-21
-1.021704111e-21
-5.130119177e-21
-2.902806613e-21
-2.807317964e-21
-8.076269652e-21
-1.516366184e-22
-3.971732948e-21
1.148099251e-23
-4.591900999e-22
-1.741433514e-19
1.487675787e-28
4.404571199e-19
-1.314848441e-18
-1.012621182e-20
-3.60390823e-24
-9.999072288e-21
-5.711250259e-22
-9.752747605e-21
-1.112769309e-21
-9.401637764e-21
-1.603683048e-21
-8.964425757e-21
-2.026155309e-21
-8.461944377e-21
-2.369168579e-21
-7.915182928e-21
-2.628348621e-21
-7.343710613e-21
-2.805100201e-21
-6.76463003e-21
-2.905270804e-21
-6.192041769e-21
-2.937678268e-21
-5.63692403e-21
-2.912746328e-21
-5.107303887e-21
-2.841385002e-21
-4.608602896e-21
-2.734163875e-21
-4.144062504e-21
-2.600766761e-21
-3.715182166e-21
-2.449684202e-21
-3.322128114e-21
-2.288088713e-21
-2.964090541e-21
-2.12183886e-21
-2.639580856e-21
-1.955565987e-21
-2.346669513e-21
-1.79280746e-21
-2.083169902e-21
-1.63616015e-21
-1.84677601e-21
-1.487436392e-21
-1.635162086e-21
-1.34781131e-21
-1.446052116e-21
-1.217955386e-21
-1.277265934e-21
-1.098149549e-21
-1.126747709e-21
-9.883823403e-22
-9.925814257e-22
-8.884300646e-22
-8.729970185e-22
-7.979215953e-22
-7.663699357e-22
-7.163898107e-22
-6.712162599e-22
-6.43311711e-22
-5.861849327e-22
-5.781391556e-22
-5.100482194e-22
-5.203219757e-22
-4.416912135e-22
-4.693249961e-22
-3.801009402e-22
-4.246402686e-22
-3.243554291e-22
-3.857956062e-22
-2.736129959e-22
-3.523603119e-22
-2.271018699e-22
-3.239488215e-22
-1.841102365e-22
-3.002228407e-22
-1.439767112e-22
-2.808924297e-22
-1.060812221e-22
-2.657163921e-22
-6.983625136e-23
-2.545022428e-22
-3.467837227e-23
-2.471059699e-22
-2.434317557e-22
-4.361460722e-22
-5.961084707e-22
-1.082136549e-21
-8.222615701e-22
-5.429368881e-21
-1.1588786e-21
-3.592164754e-21
-1.061261197e-20
-1.304432738e-21
-7.941843827e-21
3.33684663e-23
-2.165454682e-22
-5.953774261e-19
1.75609598e-28
2.978845391e-18
-2.017753715e-18
-1.069516403e-20
-5.542461549e-24
-1.054061509e-20
-7.256784683e-22
-1.024357288e-20
-1.409821053e-21
-9.824054952e-21
-2.02321561e-21
-9.307417138e-21
-2.542812646e-21
-8.721131404e-21
-2.955478649e-21
-8.091963698e-21
-3.257545425e-21
-7.443925255e-21
-3.453172443e-21
-6.797089567e-21
-3.552144927e-21
-6.167164341e-21
-3.567646492e-21
-5.565615521e-21
-3.514342624e-21
-5.000131157e-21
-3.40692123e-21
-4.475248218e-21
-3.259102966e-21
-3.993015797e-21
-3.083059518e-21
-3.553615963e-21
-2.889148443e-21
-3.155901414e-21
-2.685871623e-21
-2.797835354e-21
-2.47997711e-21
-2.476835313e-21
-2.27664192e-21
-2.190031266e-21
-2.079690967e-21
-1.934452021e-21
-1.891822284e-21
-1.707154283e-21
-1.714820309e-21
-1.505307569e-21
-1.549747347e-21
-1.326246224e-21
-1.397109053e-21
-1.167497608e-21
-1.256993335e-21
-1.026793579e-21
-1.129184237e-21
-9.020706226e-22
-1.013253434e-21
-7.914626205e-22
-9.086324025e-22
-6.932890968e-22
-8.146683771e-22
-6.060409548e-22
-7.306669781e-22
-5.283650781e-22
-6.559240846e-22
-4.590487011e-22
-5.897491769e-22
-3.970041259e-22
-5.314820119e-22
-3.412541251e-22
-4.805041711e-22
-2.909182076e-22
-4.362467319e-22
-2.451998146e-22
-3.981950648e-22
-2.033744398e-22
-3.658915537e-22
-1.647786199e-22
-3.389368617e-22
-1.287997115e-22
-3.169902294e-22
-9.486635298e-23
-2.997691786e-22
-6.243949947e-23
-2.870489079e-22
-3.100391891e-23
-2.786615924e-22
-2.744957483e-22
-2.494694328e-22
-8.276576207e-23
-4.079473983e-22
-5.834773501e-22
-4.50603253e-21
-5.995683347e-22
-6.365570775e-21
-3.441150169e-21
-4.619316988e-22
-1.69987602e-20
-9.551978089e-24
-5.298461188e-21
-1.350690464e-18
1.077652623e-24
2.110128426e-18
-3.746602962e-18
-1.141822627e-20
-1.115523211e-23
-1.122461774e-20
-9.192914989e-22
-1.08568523e-20
-1.777596028e-21
-1.034358633e-20
-2.536496225e-21
-9.720064763e-21
-3.166353741e-21
-9.023218912e-21
-3.652348847e-21
-8.287639568e-21
-3.993153878e-21
-7.542963585e-21
-4.19788224e-21
-6.812664398e-21
-4.282482565e-21
-6.113933863e-21
-4.266420041e-21
-5.458262695e-21
-4.170061287e-21
-4.852373726e-21
-4.012862082e-21
-4.299256541e-21
-3.812276325e-21
-3.799147221e-21
-3.583229196e-21
-3.350372879e-21
-3.337987216e-21
-2.950032784e-21
-3.086280104e-21
-2.594519289e-21
-2.835562822e-21
-2.279897852e-21
-2.591339276e-21
-2.002171508e-21
-2.357496796e-21
-1.757455361e-21
-2.13662135e-21
-1.542083852e-21
-1.930278024e-21
-1.352669717e-21
-1.739250835e-21
-1.186129429e-21
-1.563741692e-21
-1.039686372e-21
-1.403531592e-21
-9.108599358e-22
-1.258108573e-21
-7.97446329e-22
-1.126767486e-21
-6.974951251e-22
-1.008686443e-21
-6.092841789e-22
-9.029843981e-22
-5.312946102e-22
-8.087637042e-22
-4.621868705e-22
-7.251409091e-22
-4.007784452e-22
-6.512684589e-22
-3.460234415e-22
-5.863494887e-22
-2.969941135e-22
-5.296474334e-22
-2.528642532e-22
-4.804918327e-22
-2.128943075e-22
-4.382814025e-22
-1.764180445e-22
-4.02485206e-22
-1.428305755e-22
-3.726425633e-22
-1.115775371e-22
-3.483621901e-22
-8.214524335e-23
-3.29320931e-22
-5.405162673e-23
-3.152623663e-22
-2.683779678e-23
-3.059954942e-22
-3.013936344e-22
-6.736976783e-23
-6.753695041e-24
-1.936782045e-22
-3.107581604e-22
-9.265059482e-22
-4.650641208e-22
-9.583024252e-21
-4.809205278e-22
-6.339534204e-21
-1.557719776e-20
-6.290500893e-23
-1.533498997e-20
-9.392999817e-19
-1.99819601e-22
-4.607859262e-18
-1.59603775e-18
-1.233229539e-20
-1.665688378e-23
-1.208270603e-20
-1.168885364e-21
-1.161560438e-20
-2.244707215e-21
-1.097336973e-20
-3.178745522e-21
-1.020605315e-20
-3.93368986e-21
-9.364069399e-21
-4.494356956e-21
-8.492447561e-21
-4.864804837e-21
-7.627661137e-21
-5.062702491e-21
-6.796703628e-21
-5.113478541e-21
-6.017672329e-21
-5.045494371e-21
-5.301150718e-21
-4.886630411e-21
-4.651862569e-21
-4.662202135e-21
-4.07027073e-21
-4.393924358e-21
-3.553953882e-21
-4.099606425e-21
-3.098703039e-21
-3.793302514e-21
-2.699343022e-21
-3.485708531e-21
-2.350315183e-21
-3.184662903e-21
-2.046068305e-21
-2.895662098e-21
-1.781303891e-21
-2.622340724e-21
-1.55111596e-21
-2.366892227e-21
-1.351057676e-21
-2.130422544e-21
-1.177159483e-21
-1.91323841e-21
-1.025916772e-21
-1.715076786e-21
-8.942598308e-22
-1.535283764e-21
-7.795147424e-22
-1.372951592e-21
-6.793608837e-22
-1.227021821e-21
-5.917885938e-22
-1.096361603e-21
-5.150590696e-22
-9.798190298e-22
-4.47667579e-22
-8.762623851e-22
-3.883104375e-22
-7.846071684e-22
-3.358557934e-22
-7.038339929e-22
-2.89318035e-22
-6.329997533e-22
-2.478355074e-22
-5.712439283e-22
-2.106511692e-22
-5.177914443e-22
-1.770958082e-22
-4.719531884e-22
-1.46573446e-22
-4.331249899e-22
-1.18548587e-22
-4.007856872e-22
-9.253499621e-23
-3.744947351e-22
-6.808572389e-23
-3.538896935e-22
-4.478412143e-23
-3.386838417e-22
-2.223562138e-23
-3.28664097e-22
-3.236893611e-22
1.724256718e-24
-6.393865014e-27
-9.979409663e-23
-2.571211115e-23
-1.767645899e-22
-3.23491234e-22
-7.129122276e-21
-4.237126734e-22
-1.127511894e-20
-3.871460667e-21
-2.62056267e-22
-2.963662691e-20
8.399998086e-20
-3.728083612e-22
-1.218643249e-17
-4.773133476e-18
-1.349317291e-20
-3.865080288e-23
-1.315821215e-20
-1.503850632e-21
-1.254945619e-20
-2.85347272e-21
-1.17282381e-20
-3.99997826e-21
-1.076674038e-20
-4.895207122e-21
-9.734605443e-21
-5.526516259e-21
-8.690472191e-21
-5.908967222e-21
-7.67857886e-21
-6.074629662e-21
-6.728858761e-21
-6.063237122e-21
-5.858934881e-21
-5.915461299e-21
-5.076830976e-21
-5.668781847e-21
-4.383673816e-21
-5.355411217e-21
-3.776023057e-21
-5.001631333e-21
-3.247703447e-21
-4.627986438e-21
-2.79114825e-21
-4.249922188e-21
-2.398324881e-21
-3.878600334e-21
-2.061332557e-21
-3.521727494e-21
-1.772757905e-21
-3.184312721e-21
-1.52586093e-21
-2.86931724e-21
-1.314647816e-21
-2.578188315e-21
-1.133872233e-21
-2.311284391e-21
-9.789945943e-22
-2.06820546e-21
-8.461192149e-22
-1.848044577e-21
-7.319223702e-22
-1.649575871e-21
-6.33579311e-22
-1.471392613e-21
-5.486949082e-22
-1.312006733e-21
-4.752403649e-22
-1.169919047e-21
-4.114970045e-22
-1.04366753e-21
-3.560072672e-22
-9.318593457e-22
-3.07532548e-22
-8.331910385e-22
-2.650172526e-22
-7.464602113e-22
-2.275583358e-22
-6.705712096e-22
-1.943795788e-22
-6.045366859e-22
-1.648098932e-22
-5.474764366e-22
-1.382650046e-22
-4.986145348e-22
-1.142319411e-22
-4.572755081e-22
-9.225582315e-23
-4.228801026e-22
-7.192852139e-23
-3.949410234e-22
-5.2878807e-23
-3.730589302e-22
-3.476367143e-23
-3.569188822e-22
-1.726053419e-23
-3.462873687e-22
-3.410100166e-22
7.786793731e-26
2.430959357e-27
-2.425720848e-23
1.359442167e-24
-1.219658526e-22
-1.509612715e-22
-9.302293742e-22
-3.312887778e-22
-1.567294509e-20
-7.185362971e-22
2.700145123e-22
-5.461304442e-22
-3.914946859e-17
-3.304488009e-22
-1.078781169e-17
-7.407216855e-16
-1.496978453e-20
-1.76643905e-22
-1.450739453e-20
-1.966245124e-21
-1.369572108e-20
-3.665155724e-21
-1.262340357e-20
-5.072310425e-21
-1.139812452e-20
-6.120505715e-21
-1.011721646e-20
-6.807448697e-21
-8.856333059e-21
-7.169879761e-21
-7.667389506e-21
-7.263607068e-21
-6.581270223e-21
-7.149394901e-21
-5.612416424e-21
-6.884358163e-21
-4.763591721e-21
-6.517654098e-21
-4.029996639e-21
-6.08905824e-21
-3.402455389e-21
-5.629228819e-21
-2.869695012e-21
-5.160807239e-21
-2.419864938e-21
-4.699816763e-21
-2.041477096e-21
-4.257056635e-21
-1.7239326e-21
-3.839344282e-21
-1.457769669e-21
-3.450551649e-21
-1.234733805e-21
-3.092432672e-21
-1.047741899e-21
-2.765263223e-21
-8.907887733e-22
-2.468323811e-21
-7.588275871e-22
-2.200256087e-21
-6.476434799e-22
-1.959321126e-21
-5.537316758e-22
-1.743582968e-21
-4.741859389e-22
-1.551036342e-21
-4.065999158e-22
-1.379693296e-21
-3.489818861e-22
-1.227640011e-21
-2.996823051e-22
-1.093072283e-21
-2.573329498e-22
-9.743159569e-22
-2.207962443e-22
-8.698369278e-22
-1.891233157e-22
-7.782440959e-22
-1.615194123e-22
-6.982876855e-22
-1.373154509e-22
-6.288546811e-22
-1.159446149e-22
-5.689626122e-22
-9.69230825e-23
-5.177525581e-22
-7.983409977e-23
-4.744819784e-22
-6.431474775e-23
-4.385177848e-22
-5.004485382e-23
-4.093299365e-22
-3.67375917e-23
-3.864857469e-22
-2.413138632e-23
-3.696450245e-22
-1.19827981e-23
-3.585561232e-22
-3.530529518e-22
9.498099739e-49
1.007024889e-49
8.08526778e-24
3.9090564e-24
-6.249729272e-23
-9.056482746e-24
-1.734882063e-22
-1.25517371e-22
-2.37137068e-22
-2.843369601e-22
-6.185410992e-23
-3.145221003e-22
-2.075463597e-15
-3.485847215e-22
-1.116728247e-17
-1.574776151e-15
-1.678362247e-20
-2.974211345e-23
-1.620538173e-20
-2.544490364e-21
-1.510253867e-20
-4.768008336e-21
-1.367158672e-20
-6.503277042e-21
-1.208525062e-20
-7.706861367e-21
-1.04799261e-20
-8.412797599e-21
-8.950363864e-21
-8.699471146e-21
-7.553462712e-21
-8.660542084e-21
-6.316479158e-21
-8.386416965e-21
-5.245911183e-21
-7.954969217e-21
-4.335149136e-21
-7.428463711e-21
-3.570280429e-21
-6.853978907e-21
-2.934113938e-21
-6.265451566e-21
-2.408758548e-21
-5.686223074e-21
-1.977138915e-21
-5.131500919e-21
-1.623784119e-21
-4.610479912e-21
-1.335148752e-21
-4.128051966e-21
-1.099652084e-21
-3.686124338e-21
-9.075607694e-22
-3.284603581e-21
-7.507957044e-22
-2.922111316e-21
-6.227123632e-22
-2.596493473e-21
-5.178829518e-22
-2.305174968e-21
-4.31895301e-22
-2.045401247e-21
-3.611751152e-22
-1.814398476e-21
-3.028333273e-22
-1.609476153e-21
-2.545376129e-22
-1.428089582e-21
-2.144057907e-22
-1.267874798e-21
-1.809183104e-22
-1.126664968e-21
-1.528469673e-22
-1.002494588e-21
-1.291971652e-22
-8.935959459e-22
-1.091613417e-22
-7.983909078e-22
-9.208149687e-23
-7.154801355e-22
-7.741908839e-23
-6.436311559e-22
-6.473084908e-23
-5.817662238e-22
-5.36493382e-23
-5.289505924e-22
-4.386725661e-23
-4.8438158e-22
-3.512473646e-23
-4.473786675e-22
-2.71989637e-23
-4.173747605e-22
-1.989561134e-23
-3.939086858e-22
-1.304165481e-23
-3.766189497e-22
-6.479214075e-24
-3.652387618e-22
-3.595923187e-22
-3.961322069e-69
-4.542246901e-70
-1.477135735e-43
-6.914597463e-44
4.553783897e-25
1.418974335e-23
-6.619357976e-23
-4.553942999e-23
-1.21707057e-22
-1.950760332e-22
-5.92333584e-23
-7.968112603e-22
-1.751907449e-15
-3.421017663e-22
-2.340250412e-17
-8.166752419e-17
-1.936944119e-20
-2.462527322e-22
-1.842834024e-20
-3.48559582e-21
-1.683759018e-20
-6.358767949e-21
-1.487534026e-20
-8.465541624e-21
-1.279157788e-20
-9.790643317e-21
-1.07670673e-20
-1.043733256e-20
-8.911886446e-21
-1.055468117e-20
-7.279726758e-21
-1.029273565e-20
-5.88534265e-21
-9.780839596e-21
-4.719641053e-21
-9.120713908e-21
-3.760834033e-21
-8.387318312e-21
-2.981869827e-21
-7.632995091e-21
-2.354961518e-21
-6.892416149e-21
-1.854082399e-21
-6.187162659e-21
-1.456142396e-21
-5.529505466e-21
-1.141365733e-21
-4.925325078e-21
-8.932206763e-22
-4.376269362e-21
-6.981244504e-22
-3.88129661e-21
-5.450577469e-22
-3.437749903e-21
-4.251649966e-22
-3.04208712e-21
-3.313800942e-22
-2.690364723e-21
-2.580953686e-22
-2.378549191e-21
-2.00879083e-22
-2.102710032e-21
-1.56240074e-22
-1.859132836e-21
-1.214349396e-22
-1.644379341e-21
-9.431199848e-23
-1.455313124e-21
-7.31861358e-23
-1.289103656e-21
-5.67390943e-23
-1.143217244e-21
-4.394043676e-23
-1.015400564e-21
-3.398513223e-23
-9.036604978e-22
-2.624440862e-23
-8.062426514e-22
-2.022712986e-23
-7.216100511e-22
-1.55494836e-23
-6.484229003e-22
-1.191120521e-23
-5.855199063e-22
-9.076924056e-24
-5.319014287e-22
-6.86150927e-24
-4.867145465e-22
-5.118524078e-24
-4.492400468e-22
-3.731081977e-24
-4.188812853e-22
-2.604541556e-24
-3.951548441e-22
-1.660588102e-24
-3.77682903e-22
-8.323345982e-25
-3.661872441e-22
-3.604848211e-22
0
0
0
0
1.242771393e-34
5.58756081e-35
-2.354254332e-23
4.794723073e-24
-2.606519561e-22
-9.956952322e-23
-7.848926741e-23
-1.368365121e-22
-9.53845977e-17
-1.399855391e-35
-3.713392483e-17
-2.048987241e-16
-2.278683104e-20
-6.137528833e-22
-2.130068641e-20
-4.971744946e-21
-1.894428599e-20
-8.715177926e-21
-1.620095618e-20
-1.12088861e-20
-1.343901105e-20
-1.255260802e-20
-1.088516533e-20
-1.299120267e-20
-8.650587259e-21
-1.278928841e-20
-6.768339178e-21
-1.217501761e-20
-5.225591757e-21
-1.132362555e-20
-3.986507221e-21
-1.035984155e-20
-3.006684242e-21
-9.367188888e-21
-2.24139886e-21
-8.398332466e-21
-1.649769442e-21
-7.48410186e-21
-1.196454659e-21
-6.640537926e-21
-8.51970286e-22
-5.874054403e-21
-5.92304839e-22
-5.18505905e-21
-3.982346638e-22
-4.570411899e-21
-2.545600507e-22
-4.025047292e-21
-1.493752606e-22
-3.543014336e-21
-7.342244326e-23
-3.118123016e-21
-1.954491866e-23
-2.744328621e-21
1.776235534e-23
-2.415945988e-21
4.271529758e-23
-2.1277555e-21
5.852909916e-23
-1.875042017e-21
6.764542575e-23
-1.653593748e-21
7.191013432e-23
-1.459678462e-21
7.271153987e-23
-1.290008086e-21
7.108754869e-23
-1.141698517e-21
6.780839972e-23
-1.012228764e-21
6.344039731e-23
-8.994017729e-22
5.839488916e-23
-8.013081935e-22
5.296582614e-23
-7.162936553e-22
4.735850751e-23
-6.429297103e-22
4.171153604e-23
-5.799883695e-22
3.611355338e-23
-5.264200318e-22
3.061597303e-23
-4.813345485e-22
2.524265402e-23
-4.439851524e-22
1.999724791e-23
-4.137549923e-22
1.486879038e-23
-3.901460346e-22
9.835985803e-24
-3.727701283e-22
4.870542317e-24
-3.613420593e-22
-3.556744609e-22
1.223889317e-33
1.202773772e-34
1.212377201e-33
7.039103329e-34
2.895625324e-31
4.770608233e-34
1.302075982e-23
2.404417668e-23
-4.2347895e-23
-2.151257245e-23
5.85139375e-25
-2.795030774e-24
-1.624615404e-16
6.101471326e-27
-3.258027565e-17
-1.228202003e-16
-2.75197017e-20
-1.222559096e-21
-2.504336412e-20
-7.448087026e-21
-2.143848843e-20
-1.232006318e-20
-1.754589868e-20
-1.510149053e-20
-1.387892686e-20
-1.621959942e-20
-1.068439103e-20
-1.61857629e-20
-8.037192431e-21
-1.543651619e-20
-5.917570819e-21
-1.429467312e-20
-4.262225523e-21
-1.297900939e-20
-2.994118045e-21
-1.162799215e-20
-2.037982112e-21
-1.032337243e-20
-1.327248573e-21
-9.109118014e-21
-8.06237665e-22
-8.005169077e-21
-4.299732415e-22
-7.016862851e-21
-1.629592814e-22
-6.141132946e-21
2.236760453e-23
-5.37045448e-21
1.471596707e-22
-4.695276347e-21
2.275038362e-22
-4.105467548e-21
2.755462679e-22
-3.591136433e-21
3.004003664e-22
-3.143060216e-21
3.088638033e-22
-2.752878455e-21
3.059764121e-22
-2.413148145e-21
2.954498335e-22
-2.117321472e-21
2.799960248e-22
-1.859683613e-21
2.615771482e-22
-1.635272979e-21
2.415949275e-22
-1.439796898e-21
2.210337108e-22
-1.269549921e-21
2.005682848e-22
-1.121338384e-21
1.806449359e-22
-9.924127923e-22
1.615422468e-22
-8.804083898e-22
1.434165681e-22
-7.832935937e-22
1.263359099e-22
-6.993256931e-22
1.103050953e-22
-6.270130532e-22
9.528432354e-23
-5.650830614e-22
8.120276979e-23
-5.124550928e-22
6.796845275e-23
-4.682178426e-22
5.547530379e-23
-4.316104569e-22
4.360814589e-23
-4.020069762e-22
3.224612254e-23
-3.789036881e-22
2.126499144e-23
-3.619090556e-22
1.053860491e-23
-3.507359598e-22
-3.451960515e-22
4.812744548e-35
1.284750982e-36
2.290911119e-29
5.129393286e-30
2.641778594e-29
9.24380541e-30
2.119217929e-24
7.702441985e-25
-3.300054308e-25
6.899042388e-24
4.322777609e-27
-1.674344813e-24
-3.749817858e-17
5.499302801e-35
-1.424099569e-17
3.735199281e-29
-3.442801e-20
-2.721215417e-21
-2.991576546e-20
-1.196033608e-20
-2.422204248e-20
-1.801379572e-20
-1.866655936e-20
-2.065698832e-20
-1.384727127e-20
-2.103890709e-20
-9.936758132e-21
-2.009630045e-20
-6.896443534e-21
-1.847685997e-20
-4.602599848e-21
-1.658855071e-20
-2.911617418e-21
-1.467003038e-20
-1.689718471e-21
-1.284993423e-20
-8.2382762e-22
-1.118931091e-20
-2.233264815e-22
-9.709671176e-21
1.820837809e-22
-8.410635663e-21
4.457942107e-22
-7.280633799e-21
6.077668862e-22
-6.303170221e-21
6.975963552e-22
-5.460352512e-21
7.37017901e-22
-4.734770294e-21
7.418810466e-22
-4.110406804e-21
7.236642725e-22
-3.572999344e-21
6.906193323e-22
-3.110098399e-21
6.486268443e-22
-2.710972386e-21
6.01831652e-22
-2.366442523e-21
5.531124951e-22
-2.06869489e-21
5.044281186e-22
-1.811094666e-21
4.570717524e-22
-1.588014744e-21
4.118578696e-22
-1.394683697e-21
3.692589936e-22
-1.227054123e-21
3.295056978e-22
-1.081690406e-21
2.926594944e-22
-9.55673992e-22
2.586657549e-22
-8.465239826e-22
2.273919255e-22
-7.521308699e-22
1.986549117e-22
-6.707014022e-22
1.722404892e-22
-6.007128152e-22
1.479168478e-22
-5.408749106e-22
1.254438235e-22
-4.900987103e-22
1.045789677e-22
-4.474706251e-22
8.508130253e-23
-4.122312722e-22
6.671339137e-23
-3.837582339e-22
4.924219035e-23
-3.615521906e-22
3.243902881e-23
-3.452259791e-22
1.607897948e-23
-3.344962239e-22
-3.291772796e-22
0
0
1.744370155e-29
2.453816588e-30
5.488169627e-29
1.790286165e-29
3.516441725e-30
1.532125341e-30
7.261653608e-24
7.972656412e-24
9.841964916e-36
-6.190000597e-26
1.406025153e-29
-2.355409417e-27
-1.162997672e-39
-1.087086802e-46
-4.476957288e-20
-7.638321488e-21
-3.597418426e-20
-2.075572921e-20
-2.687096659e-20
-2.711702296e-20
-1.90531582e-20
-2.84748114e-20
-1.290790334e-20
-2.718418153e-20
-8.319358712e-21
-2.46848695e-20
-5.009328781e-21
-2.17869191e-20
-2.684723638e-21
-1.891318977e-20
-1.091827175e-21
-1.626296541e-20
-2.920314883e-23
-1.39126014e-20
6.558137162e-22
-1.187437541e-20
1.075766697e-21
-1.012967619e-20
1.312168001e-21
-8.647093305e-21
1.423347172e-21
-7.391873504e-21
1.450671596e-21
-6.330559261e-21
1.423258623e-21
-5.433008117e-21
1.361452681e-21
-4.67303677e-21
1.279350738e-21
-4.028380989e-21
1.186618864e-21
-3.480347175e-21
1.089791231e-21
-3.013353909e-21
9.931957702e-22
-2.614463364e-21
8.996124537e-22
-2.272948798e-21
8.107408502e-22
-1.979915882e-21
7.275318936e-22
-1.72798116e-21
6.504230338e-22
-1.511004039e-21
5.795046194e-22
-1.323865987e-21
5.146373009e-22
-1.162289905e-21
4.555345143e-22
-1.022692961e-21
4.018200496e-22
-9.020669542e-22
3.530678324e-22
-7.978811219e-22
3.088290057e-22
-7.080031729e-22
2.686499486e-22
-6.306350925e-22
2.320838377e-22
-5.642609132e-22
1.986976153e-22
-5.076042035e-22
1.680757049e-22
-4.595934664e-22
1.398214321e-22
-4.193340151e-22
1.13556837e-22
-3.860851822e-22
8.892137007e-23
-3.592419602e-22
6.556981848e-23
-3.38320367e-22
4.316971201e-23
-3.22945982e-22
2.1398383e-23
-3.128452326e-22
-3.078391151e-22
0
0
2.041863254e-32
1.942706369e-33
4.323222906e-29
8.194958451e-30
3.858064152e-30
1.264780914e-30
1.70260495e-32
7.441592427e-33
6.192330269e-27
4.568251365e-26
3.160742584e-28
-9.021124137e-29
3.160742584e-28
5.798656903e-48
-5.949693833e-20
-2.406228616e-20
-4.235245867e-20
-3.790021336e-20
-2.824052861e-20
-4.122896259e-20
-1.776973212e-20
-3.894562256e-20
-1.041264669e-20
-3.454128656e-20
-5.423526348e-21
-2.967401426e-20
-2.136598283e-21
-2.507387636e-20
-3.488253575e-23
-2.101493944e-20
1.258474564e-21
-1.755636108e-20
2.009115376e-21
-1.466328536e-20
2.400669677e-21
-1.226597735e-20
2.558523171e-21
-1.028758174e-20
2.567554984e-21
-8.656181468e-21
2.484812065e-21
-7.30919113e-21
2.348353618e-21
-6.194165443e-21
2.183341266e-21
-5.268064358e-21
2.006201914e-21
-4.495969851e-21
1.827462448e-21
-3.849717668e-21
1.653676811e-21
-3.306641259e-21
1.488735403e-21
-2.84849566e-21
1.334754804e-21
-2.460569222e-21
1.192682282e-21
-2.130965886e-21
1.062706272e-21
-1.850032486e-21
9.445346049e-22
-1.609904963e-21
8.375824684e-22
-1.404150076e-21
7.410986136e-22
-1.227482857e-21
6.54249284e-22
-1.075543696e-21
5.761731731e-22