/*--------------------------------*- C++ -*----------------------------------*\
  =========                 |
  \\      /  F ield         | OpenFOAM: The Open Source CFD Toolbox
   \\    /   O peration     | Website:  https://openfoam.org
    \\  /    A nd           | Version:  6
     \\/     M anipulation  |
\*---------------------------------------------------------------------------*/
FoamFile
{
    version     2.0;
    format      ascii;
    class       volVectorField;
    location    "0.1";
    object      gradT;
}
// * * * * * * * * * * * * * * * * * * * * * * * * * * * * * * * * * * * * * //

dimensions      [0 -1 0 1 0 0 0];

internalField   nonuniform List<vector> 
2500
(
(0 -1419.220995 23034.10129)
(0 -3099.605429 19788.1632)
(0 -2984.168427 15277.48902)
(0 -2258.340573 11005.45334)
(0 -1706.259992 7458.975582)
(0 -1386.811207 4634.65339)
(0 -1211.466403 2247.767222)
(0 -590.6465863 88.77720749)
(0 -18.42022517 35.43607036)
(0 -6.459324719 19.26917471)
(0 -3.587621137 9.992331023)
(0 -1.906073021 4.92178292)
(0 -0.9564037618 2.305820123)
(0 -0.4522904071 1.034446067)
(0 -0.2028206794 0.4489001661)
(0 -0.08719560696 0.1904669004)
(0 -0.03640910956 0.07969774571)
(0 -0.0149448521 0.03302687529)
(0 -0.006079759679 0.01354493783)
(0 -0.002457387517 0.005473227573)
(0 -0.0009840113509 0.002165793272)
(0 -0.0003879590187 0.0008342974304)
(0 -0.0001495520431 0.0003113808405)
(0 -5.602426497e-05 0.000112228148)
(0 -2.030794431e-05 3.898370319e-05)
(0 -7.100630139e-06 1.303339007e-05)
(0 -2.387691764e-06 4.192154286e-06)
(0 -7.735763678e-07 1.298125049e-06)
(0 -2.434278576e-07 3.85399991e-07)
(0 -7.37389238e-08 1.078084712e-07)
(0 -2.263460265e-08 2.625802136e-08)
(0 -6.493919262e-09 1.411721579e-09)
(0 4.705738596e-11 -1.694065895e-09)
(0 -1.411721579e-10 -4.141049964e-09)
(0 -1.270549421e-09 -2.729328386e-09)
(0 -2.305811912e-09 -3.435189175e-09)
(0 3.529303947e-09 -7.482124367e-09)
(0 6.352747104e-09 2.682271e-09)
(0 1.835238052e-09 6.964493122e-09)
(0 -3.388131789e-09 4.941025526e-09)
(0 -2.588156228e-09 -4.329279508e-09)
(0 -2.258754526e-09 -6.070402789e-09)
(0 -3.435189175e-09 -1.17172891e-08)
(0 4.470451666e-09 -9.693821507e-09)
(0 5.976288017e-09 1.270549421e-09)
(0 2.870500543e-09 6.493919262e-09)
(0 4.705738596e-11 8.329157315e-09)
(0 -1.647008509e-09 6.87037835e-09)
(0 -5.646886315e-10 6.729206192e-09)
(0 -3.717533491e-09 3.623418719e-09)
(0 -1826.717097 13213.60652)
(0 -4657.006848 13034.36807)
(0 -5798.541437 11842.49873)
(0 -5560.172864 9472.853119)
(0 -4664.539958 6686.046166)
(0 -3824.397153 4228.098738)
(0 -3334.409779 2099.956764)
(0 -1621.684565 85.76549236)
(0 -51.08780761 36.04463419)
(0 -18.98441462 20.12683955)
(0 -10.75977065 10.71481387)
(0 -5.780437879 5.454636254)
(0 -2.930933091 2.668140069)
(0 -1.40462955 1.263616817)
(0 -0.6411584866 0.584334138)
(0 -0.2820068134 0.2655785946)
(0 -0.1210309156 0.1189476927)
(0 -0.05120795582 0.05241534058)
(0 -0.02147388803 0.02262181682)
(0 -0.008921757046 0.009508856993)
(0 -0.003654918698 0.003872751855)
(0 -0.00146645346 0.001522239191)
(0 -0.0005725172394 0.0005759518639)
(0 -0.0002163728723 0.0002094602364)
(0 -7.888681359e-05 7.317983499e-05)
(0 -2.769087171e-05 2.456456722e-05)
(0 -9.347620319e-06 7.923428533e-06)
(0 -3.033177927e-06 2.456301432e-06)
(0 -9.468887203e-07 7.329658437e-07)
(0 -2.854030458e-07 2.107229743e-07)
(0 -8.371508962e-08 5.69864944e-08)
(0 -2.150522538e-08 1.632891293e-08)
(0 -5.599828929e-09 6.776263578e-09)
(0 -8.940903332e-10 4.376336894e-09)
(0 1.929352824e-09 3.811648263e-09)
(0 -2.352869298e-09 7.10566528e-09)
(0 2.588156228e-09 3.388131789e-09)
(0 8.093870385e-09 -7.999755613e-10)
(0 4.235164736e-10 -2.823443158e-10)
(0 -7.999755613e-09 6.588034034e-10)
(0 -8.376214701e-09 -4.18810735e-09)
(0 -5.129255069e-09 -8.093870385e-09)
(0 -2.352869298e-10 -1.97641021e-09)
(0 8.564444244e-09 -2.070524982e-09)
(0 1.025851014e-08 -1.035262491e-09)
(0 4.235164736e-09 7.999755613e-10)
(0 3.294017017e-10 1.035262491e-09)
(0 0 2.588156228e-09)
(0 -2.776385772e-09 2.635213614e-09)
(0 -6.588034034e-09 1.74112328e-09)
(0 -1598.459444 8118.743704)
(0 -4470.713221 8663.019705)
(0 -6545.683383 8979.96068)
(0 -7414.793139 8272.692675)
(0 -6951.014373 6423.208302)
(0 -5972.900609 4243.456095)
(0 -5353.799649 2186.023781)
(0 -2654.558716 91.20153461)
(0 -84.05887798 39.36978264)
(0 -31.78914504 22.78162486)
(0 -18.25982443 12.73264671)
(0 -9.952746819 6.904354912)
(0 -5.147423199 3.646678512)
(0 -2.536096338 1.882137163)
(0 -1.200858902 0.9506775373)
(0 -0.5525820523 0.4694196842)
(0 -0.2495723636 0.2258166695)
(0 -0.1112707279 0.1053519472)
(0 -0.04898624322 0.04745504915)
(0 -0.02120645253 0.02056426796)
(0 -0.008970629153 0.008552018789)
(0 -0.003684759057 0.003408400817)
(0 -0.001462330997 0.001301180109)
(0 -0.0005587962939 0.0004758607569)
(0 -0.0002052036135 0.0001668078453)
(0 -7.235708366e-05 5.609334521e-05)
(0 -2.449586343e-05 1.811262314e-05)
(0 -7.964039057e-06 5.622604704e-06)
(0 -2.489053373e-06 1.679478105e-06)
(0 -7.497182731e-07 4.83796985e-07)
(0 -2.17028664e-07 1.356664437e-07)
(0 -5.670415008e-08 3.726944968e-08)
(0 -1.190551865e-08 1.17172891e-08)
(0 -3.011672701e-09 7.529181753e-09)
(0 1.364664193e-09 5.364541999e-09)
(0 -2.823443158e-09 6.305689718e-09)
(0 -4.329279508e-09 3.811648263e-09)
(0 2.682271e-09 -3.105787473e-09)
(0 3.294017017e-09 -4.470451666e-09)
(0 -7.199780052e-09 -8.940903332e-10)
(0 -1.143494479e-08 -1.035262491e-09)
(0 0 -3.058730087e-09)
(0 2.682271e-09 -9.882051051e-10)
(0 5.270427227e-09 -4.235164736e-10)
(0 8.893845946e-09 -9.411477192e-10)
(0 4.846910754e-09 -1.552893737e-09)
(0 1.835238052e-09 -1.035262491e-09)
(0 0 7.058607894e-10)
(0 -1.364664193e-09 0)
(0 -8.093870385e-09 1.788180666e-09)
(0 -1282.441096 5734.528098)
(0 -3795.789871 6359.715581)
(0 -6188.868467 7158.988812)
(0 -8116.925242 7488.019285)
(0 -8693.776538 6564.374009)
(0 -8061.581674 4531.46172)
(0 -7486.66434 2360.191823)
(0 -3768.338563 102.8731324)
(0 -119.5077174 46.8610655)
(0 -45.62155055 28.7847533)
(0 -26.6370406 17.33213391)
(0 -14.86640608 10.22475044)
(0 -7.953150841 5.89435305)
(0 -4.100630525 3.306853182)
(0 -2.053875965 1.797137876)
(0 -1.006867681 0.9418408472)
(0 -0.4850986524 0.4741359242)
(0 -0.2295695762 0.2285878824)
(0 -0.1062615673 0.1053332356)
(0 -0.04782478736 0.04634306275)
(0 -0.0208107858 0.0194621357)
(0 -0.008717292187 0.007803910208)
(0 -0.003505057393 0.002989879861)
(0 -0.001350745042 0.001095549214)
(0 -0.0004986541312 0.0003843537171)
(0 -0.0001763861409 0.0001292641922)
(0 -5.981840788e-05 4.172583119e-05)
(0 -1.946641708e-05 1.294543982e-05)
(0 -6.085649382e-06 3.863458445e-06)
(0 -1.82916765e-06 1.112624834e-06)
(0 -5.30242625e-07 3.102493456e-07)
(0 -1.454073226e-07 8.517386859e-08)
(0 -3.534009685e-08 2.023467596e-08)
(0 -7.293894824e-09 5.505714157e-09)
(0 7.529181753e-10 3.623418719e-09)
(0 -3.952820421e-09 1.223492035e-09)
(0 -6.87037835e-09 3.623418719e-09)
(0 -2.352869298e-10 8.940903332e-10)
(0 2.729328386e-09 -3.152844859e-09)
(0 -4.564566438e-09 -5.929230631e-09)
(0 -1.058791184e-08 -2.823443158e-09)
(0 -5.082197684e-09 -3.764590877e-10)
(0 2.399926684e-09 -2.776385772e-09)
(0 8.658559016e-09 1.411721579e-10)
(0 9.129132876e-09 9.411477192e-11)
(0 4.141049964e-09 -9.411477192e-11)
(0 2.541098842e-09 -1.647008509e-09)
(0 1.082319877e-09 -1.176434649e-09)
(0 -1.647008509e-09 -4.705738596e-11)
(0 -8.423272087e-09 -1.411721579e-09)
(0 -973.2719611 4558.069453)
(0 -3046.252507 5165.938495)
(0 -5417.379679 6043.543329)
(0 -8009.407942 6773.580247)
(0 -9907.571939 6652.113962)
(0 -10177.0828 4898.164812)
(0 -9782.388236 2567.641001)
(0 -4967.889473 122.8407662)
(0 -158.1472571 62.17018893)
(0 -61.31807664 41.54566291)
(0 -36.81982729 27.3057378)
(0 -21.39052768 17.49643929)
(0 -12.06532046 10.8410799)
(0 -6.633311512 6.451111686)
(0 -3.565871237 3.668565275)
(0 -1.875584004 1.987499817)
(0 -0.9628253284 1.024073376)
(0 -0.4800734165 0.5015139308)
(0 -0.2312310629 0.2334532642)
(0 -0.1070775524 0.1033578997)
(0 -0.04750978179 0.04356394106)
(0 -0.02015701476 0.01750088992)
(0 -0.008170691897 0.006709796526)
(0 -0.003164322579 0.002458501647)
(0 -0.001171488682 0.0008620810052)
(0 -0.0004149849696 0.0002896966088)
(0 -0.0001408146159 9.342265188e-05)
(0 -4.582636474e-05 2.89494215e-05)
(0 -1.432177424e-05 8.629806954e-06)
(0 -4.302974429e-06 2.478089002e-06)
(0 -1.244526686e-06 6.862378594e-07)
(0 -3.466717624e-07 1.841826086e-07)
(0 -9.162073046e-08 4.343396724e-08)
(0 -1.971704472e-08 7.388009595e-09)
(0 -2.776385772e-09 -2.870500543e-09)
(0 -2.870500543e-09 -4.093992578e-09)
(0 -4.564566438e-09 1.788180666e-09)
(0 -4.046935192e-09 2.21169714e-09)
(0 -3.529303947e-09 -3.858705649e-09)
(0 -6.917435736e-09 -7.623296525e-09)
(0 -5.835115859e-09 -4.046935192e-09)
(0 0 1.882295438e-10)
(0 3.105787473e-09 2.823443158e-10)
(0 8.187985157e-09 4.235164736e-10)
(0 8.61150163e-09 2.352869298e-10)
(0 3.152844859e-09 -3.294017017e-10)
(0 7.999755613e-10 -6.117460175e-10)
(0 1.599951123e-09 -2.258754526e-09)
(0 -1.647008509e-09 0)
(0 -6.63509142e-09 -1.788180666e-09)
(0 -674.5720535 3894.491805)
(0 -2310.315995 4489.491416)
(0 -4581.226715 5378.633216)
(0 -7508.354609 6208.560947)
(0 -10569.19197 6514.85047)
(0 -12146.05464 5327.109442)
(0 -12261.98839 2795.221061)
(0 -6273.809376 159.4627033)
(0 -200.8028206 93.74020276)
(0 -80.48600168 68.42122783)
(0 -50.68626422 48.53997677)
(0 -31.33106398 33.06450563)
(0 -18.99847845 21.45533749)
(0 -11.27314515 13.20030447)
(0 -6.517487834 7.68307017)
(0 -3.65135958 4.227896113)
(0 -1.971084539 2.200502446)
(0 -1.020189688 1.08429956)
(0 -0.5044175984 0.5064909585)
(0 -0.2377141104 0.2246116573)
(0 -0.1066677956 0.09471366096)
(0 -0.04557143672 0.03803712863)
(0 -0.01854744567 0.01457169696)
(0 -0.007198460563 0.005333343988)
(0 -0.00266745917 0.001867828351)
(0 -0.0009450444472 0.0006268430151)
(0 -0.0003205655952 0.00020187388)
(0 -0.000104259215 6.246943278e-05)
(0 -3.255702893e-05 1.859905534e-05)
(0 -9.772736744e-06 5.334566444e-06)
(0 -2.824149018e-06 1.47506082e-06)
(0 -7.882582722e-07 3.931174023e-07)
(0 -2.120876385e-07 1.001851747e-07)
(0 -5.359836261e-08 2.075230721e-08)
(0 -1.0729084e-08 -1.411721579e-09)
(0 7.058607894e-10 -5.976288017e-09)
(0 -5.646886315e-10 -3.246959631e-09)
(0 -5.882173245e-09 1.882295438e-10)
(0 -7.199780052e-09 -3.529303947e-09)
(0 -4.752795982e-09 -2.399926684e-09)
(0 -2.729328386e-09 -6.117460175e-10)
(0 -7.529181753e-10 3.764590877e-10)
(0 2.588156228e-09 -6.117460175e-10)
(0 8.705616402e-09 -1.270549421e-09)
(0 8.423272087e-09 -3.294017017e-10)
(0 3.246959631e-09 -2.729328386e-09)
(0 5.176312455e-10 -6.117460175e-10)
(0 1.599951123e-09 -8.470329473e-10)
(0 -1.082319877e-09 -8.940903332e-10)
(0 -6.588034034e-09 4.705738596e-11)
(0 -378.2723498 3482.211216)
(0 -1562.111096 4061.289254)
(0 -3698.310148 4994.584685)
(0 -6873.190688 5931.710405)
(0 -10789.02344 6439.313489)
(0 -13896.7122 5783.212239)
(0 -14950.03497 3131.482086)
(0 -7669.370331 232.2999114)
(0 -249.1887325 158.8999569)
(0 -106.5183026 124.4088427)
(0 -72.1765495 92.94409371)
(0 -48.47516695 65.64230432)
(0 -31.92952162 43.63719847)
(0 -20.40557883 27.26963131)
(0 -12.53827959 16.02598516)
(0 -7.358151728 8.868558469)
(0 -4.106421881 4.629227213)
(0 -2.174084904 2.283551646)
(0 -1.090918965 1.066593855)
(0 -0.51885485 0.4726109197)
(0 -0.2340843105 0.1990368066)
(0 -0.1002989789 0.07981197648)
(0 -0.04087447654 0.03052505026)
(0 -0.0158681911 0.01115358392)
(0 -0.005877989702 0.003899650327)
(0 -0.00208093944 0.001306593543)
(0 -0.0007051881982 0.0004201244831)
(0 -0.0002291011894 0.0001298139166)
(0 -7.145668764e-05 3.859656208e-05)
(0 -2.142696895e-05 1.105575637e-05)
(0 -6.185975729e-06 3.052800857e-06)
(0 -1.721594465e-06 8.133398589e-07)
(0 -4.638917108e-07 2.100641709e-07)
(0 -1.21313941e-07 5.124549331e-08)
(0 -2.945792361e-08 1.035262491e-08)
(0 -4.65868121e-09 -1.882295438e-09)
(0 1.364664193e-09 -1.223492035e-09)
(0 -4.282222122e-09 -9.411477192e-10)
(0 -6.023345403e-09 -4.705738596e-10)
(0 -3.952820421e-09 -4.705738596e-11)
(0 -3.105787473e-09 1.364664193e-09)
(0 0 -3.764590877e-10)
(0 1.505836351e-09 0)
(0 8.423272087e-09 -8.940903332e-10)
(0 7.011550508e-09 -9.882051051e-10)
(0 2.964615315e-09 -2.635213614e-09)
(0 2.776385772e-09 -6.117460175e-10)
(0 1.364664193e-09 -2.352869298e-10)
(0 -7.999755613e-10 -9.411477192e-10)
(0 -5.835115859e-09 -7.529181753e-10)
(0 -95.49401587 3274.455512)
(0 -797.9425263 3784.008719)
(0 -2710.805564 4762.173469)
(0 -6063.625804 5886.413962)
(0 -10717.69014 6676.264171)
(0 -15453.88604 6406.547998)
(0 -17812.90071 3906.298236)
(0 -9246.391504 382.1139604)
(0 -308.6938893 291.703852)
(0 -146.4418649 238.837594)
(0 -109.4528026 183.6341653)
(0 -80.63795922 131.9659278)
(0 -57.37115146 88.59237085)
(0 -38.88435846 55.63908371)
(0 -24.91856068 32.76222459)
(0 -15.04811753 18.13177126)
(0 -8.556091362 9.454635973)
(0 -4.582823045 4.655976451)
(0 -2.315358325 2.170239867)
(0 -1.105271159 0.9595106077)
(0 -0.4994667388 0.4031794024)
(0 -0.214083193 0.1613118264)
(0 -0.08720583823 0.06156323698)
(0 -0.03382386049 0.02244867887)
(0 -0.01251444955 0.007833620218)
(0 -0.004424570385 0.002619926457)
(0 -0.001497345175 0.0008409860732)
(0 -0.000485787136 0.0002594473682)
(0 -0.0001513152362 7.702414108e-05)
(0 -4.531645091e-05 2.203005641e-05)
(0 -1.306656553e-05 6.077508454e-06)
(0 -3.630947901e-06 1.618397618e-06)
(0 -9.742290615e-07 4.168813822e-07)
(0 -2.532628512e-07 1.03996823e-07)
(0 -6.395098752e-08 2.362280775e-08)
(0 -1.087025616e-08 4.18810735e-09)
(0 5.176312455e-10 3.482246561e-09)
(0 -5.176312455e-09 -3.294017017e-10)
(0 -6.39980449e-09 1.505836351e-09)
(0 -2.964615315e-09 -2.352869298e-10)
(0 -2.964615315e-09 1.882295438e-09)
(0 -2.070524982e-09 -4.705738596e-10)
(0 2.070524982e-09 -2.352869298e-10)
(0 7.717411297e-09 6.117460175e-10)
(0 6.63509142e-09 -1.505836351e-09)
(0 3.670476105e-09 -1.411721579e-10)
(0 2.823443158e-09 4.705738596e-11)
(0 1.270549421e-09 0)
(0 -1.552893737e-09 -8.940903332e-10)
(0 -4.89396814e-09 -4.235164736e-10)
(0 131.2808575 3310.172601)
(0 -74.39313809 3661.029661)
(0 -1595.904905 4616.934395)
(0 -4959.099986 5954.888398)
(0 -10268.88941 7146.905884)
(0 -16666.67814 7356.549642)
(0 -20974.46901 5208.588781)
(0 -11283.96472 674.4717003)
(0 -392.465099 555.6901958)
(0 -214.5879893 466.730334)
(0 -179.0482157 363.575563)
(0 -143.5169614 262.723145)
(0 -108.2563657 176.5802691)
(0 -76.23572509 110.7626422)
(0 -50.04559204 65.05905714)
(0 -30.66574035 35.89507991)
(0 -17.58221669 18.65529364)
(0 -9.458481009 9.156402499)
(0 -4.787384809 4.254255954)
(0 -2.285915315 1.875162584)
(0 -1.032283092 0.7856778114)
(0 -0.4419151442 0.3135139448)
(0 -0.1797376241 0.1193556369)
(0 -0.06959780791 0.04342356045)
(0 -0.02570674206 0.01512123189)
(0 -0.009073573538 0.005047480909)
(0 -0.003065667334 0.00161733878)
(0 -0.0009930632155 0.0004981342412)
(0 -0.0003088739523 0.0001476605714)
(0 -9.237360158e-05 4.217593508e-05)
(0 -2.65975404e-05 1.162185672e-05)
(0 -7.382221537e-06 3.092423176e-06)
(0 -1.978433678e-06 7.951757079e-07)
(0 -5.145725155e-07 1.975469063e-07)
(0 -1.292195818e-07 4.597506608e-08)
(0 -2.475218501e-08 1.17172891e-08)
(0 -3.152844859e-09 9.411477192e-11)
(0 -6.258632332e-09 -1.835238052e-09)
(0 -5.976288017e-09 -7.999755613e-10)
(0 -3.529303947e-09 9.411477192e-11)
(0 -3.435189175e-09 1.176434649e-09)
(0 -2.117582368e-09 7.058607894e-10)
(0 2.588156228e-09 -4.705738596e-11)
(0 7.152722666e-09 -2.258754526e-09)
(0 6.352747104e-09 -1.835238052e-09)
(0 4.470451666e-09 0)
(0 2.917557929e-09 -4.705738596e-11)
(0 4.705738596e-10 9.411477192e-11)
(0 -1.270549421e-09 -6.588034034e-10)
(0 -4.470451666e-09 1.882295438e-10)
(0 255.3630437 3572.78234)
(0 508.8192675 3741.367654)
(0 -416.9468269 4545.743283)
(0 -3533.654315 6042.438937)
(0 -9316.028895 7679.765531)
(0 -17392.20314 8516.309978)
(0 -24494.97865 6888.127302)
(0 -13899.29009 1218.819568)
(0 -516.4352557 1067.205528)
(0 -338.5564976 907.8161792)
(0 -313.4599915 709.1869538)
(0 -267.6332531 511.4335193)
(0 -209.3316543 342.296801)
(0 -150.4055705 213.6279605)
(0 -99.78612301 124.8267973)
(0 -61.45188103 68.52453002)
(0 -35.29476877 35.44583218)
(0 -18.98386073 17.32225908)
(0 -9.59659824 8.016544011)
(0 -4.573849302 3.520839252)
(0 -2.061115378 1.470425785)
(0 -0.8804053676 0.5850335157)
(0 -0.3572962226 0.2221325417)
(0 -0.1380582655 0.08062079643)
(0 -0.05089052914 0.02801278286)
(0 -0.01792846345 0.009332010443)
(0 -0.006046691842 0.002984743971)
(0 -0.001955465344 0.0009177494693)
(0 -0.0006072734953 0.0002716258197)
(0 -0.0001813553068 7.74753273e-05)
(0 -5.215003038e-05 2.13199134e-05)
(0 -1.445762892e-05 5.666132786e-06)
(0 -3.869058274e-06 1.453932054e-06)
(0 -1.002463493e-06 3.604125191e-07)
(0 -2.497806047e-07 8.733850834e-08)
(0 -5.675120747e-08 1.990527426e-08)
(0 -1.303489591e-08 -6.588034034e-10)
(0 -6.117460175e-09 -3.246959631e-09)
(0 -4.42339428e-09 -2.117582368e-09)
(0 -9.882051051e-10 -5.176312455e-10)
(0 -2.305811912e-09 1.270549421e-09)
(0 -3.294017017e-09 1.082319877e-09)
(0 -8.940903332e-10 8.470329473e-10)
(0 5.882173245e-09 -2.729328386e-09)
(0 8.940903332e-09 -8.470329473e-10)
(0 5.458656771e-09 -9.411477192e-11)
(0 2.917557929e-09 -9.411477192e-11)
(0 6.117460175e-10 -9.411477192e-11)
(0 -1.458778965e-09 7.529181753e-10)
(0 -4.42339428e-09 -4.235164736e-10)
(0 299.8661717 3948.900892)
(0 898.5678049 4039.799795)
(0 705.1663776 4566.401676)
(0 -1825.077738 6112.903742)
(0 -7795.018366 8204.901543)
(0 -17458.31637 9788.803701)
(0 -28271.95942 8861.729331)
(0 -17104.88649 2229.801752)
(0 -703.4684876 2038.285079)
(0 -572.6065631 1736.570192)
(0 -575.4308756 1349.858183)
(0 -510.4071142 966.2806086)
(0 -406.0619245 641.6116917)
(0 -293.7057288 397.3797633)
(0 -195.1490225 230.5671298)
(0 -120.0467055 125.7716811)
(0 -68.78448763 64.69204269)
(0 -36.88776918 31.45703711)
(0 -18.58880464 14.49363011)
(0 -8.83203354 6.340619867)
(0 -3.968088828 2.638849627)
(0 -1.690208388 1.046654644)
(0 -0.6841503433 0.3963043799)
(0 -0.2637175668 0.1434767443)
(0 -0.09699552805 0.04974113522)
(0 -0.03410161253 0.01653685001)
(0 -0.01147992821 0.005279387754)
(0 -0.003706181367 0.001620581645)
(0 -0.001149148047 0.0004789038169)
(0 -0.0003426794137 0.000136403033)
(0 -9.840682903e-05 3.748770184e-05)
(0 -2.724824994e-05 9.950707777e-06)
(0 -7.284201002e-06 2.55211027e-06)
(0 -1.881119004e-06 6.31933636e-07)
(0 -4.696797693e-07 1.515247828e-07)
(0 -1.128436115e-07 3.209313722e-08)
(0 -2.635213614e-08 2.823443158e-09)
(0 -7.717411297e-09 -2.870500543e-09)
(0 -3.105787473e-09 -1.364664193e-09)
(0 -2.352869298e-10 4.705738596e-11)
(0 -1.835238052e-09 -1.882295438e-10)
(0 -2.494041456e-09 6.117460175e-10)
(0 -1.223492035e-09 -2.352869298e-10)
(0 5.505714157e-09 -1.882295438e-10)
(0 8.940903332e-09 -9.882051051e-10)
(0 5.176312455e-09 4.705738596e-11)
(0 2.917557929e-09 -9.411477192e-11)
(0 1.364664193e-09 -4.705738596e-11)
(0 -1.552893737e-09 -1.411721579e-10)
(0 -4.89396814e-09 -1.882295438e-10)
(0 346.2619462 4348.837492)
(0 1126.320051 4419.677933)
(0 1656.15712 4765.131798)
(0 104.8455522 6165.135726)
(0 -5640.128935 8717.600309)
(0 -16735.37535 11251.17139)
(0 -32053.9806 11319.10908)
(0 -20722.73434 4099.320969)
(0 -1009.666816 3838.169409)
(0 -1026.983394 3242.1311)
(0 -1083.749575 2491.500033)
(0 -975.8797443 1762.988344)
(0 -778.2324996 1158.161256)
(0 -561.4501324 710.4986876)
(0 -371.3942051 408.8211986)
(0 -227.3269681 221.3979664)
(0 -129.6094128 113.1658914)
(0 -69.18227332 54.72897437)
(0 -34.71301548 25.09682557)
(0 -16.42862978 10.93391981)
(0 -7.355080601 4.534002682)
(0 -3.122950615 1.79258692)
(0 -1.260474122 0.6768211618)
(0 -0.48462151 0.244416123)
(0 -0.1778304234 0.08454399225)
(0 -0.06239021092 0.02805030666)
(0 -0.02096296016 0.008938640295)
(0 -0.006755949281 0.002739271376)
(0 -0.002091452202 0.0008082658963)
(0 -0.0006227714218 0.0002298954239)
(0 -0.0001786024026 6.3103484e-05)
(0 -4.939312637e-05 1.673243001e-05)
(0 -1.318778536e-05 4.291163026e-06)
(0 -3.403143095e-06 1.063308693e-06)
(0 -8.496681609e-07 2.541569416e-07)
(0 -2.054054897e-07 5.632769099e-08)
(0 -4.795147629e-08 8.893845946e-09)
(0 -1.025851014e-08 -1.082319877e-09)
(0 -1.647008509e-09 -4.705738596e-11)
(0 2.823443158e-10 6.588034034e-10)
(0 -1.788180666e-09 2.352869298e-10)
(0 -3.341074403e-09 4.705738596e-10)
(0 -1.694065895e-09 -5.646886315e-10)
(0 5.082197684e-09 9.411477192e-11)
(0 9.176190262e-09 -1.270549421e-09)
(0 6.446861876e-09 9.411477192e-11)
(0 2.823443158e-09 1.411721579e-10)
(0 5.176312455e-10 9.411477192e-11)
(0 -1.647008509e-09 -6.588034034e-10)
(0 -4.046935192e-09 -2.352869298e-10)
(0 370.7066127 4774.738757)
(0 1314.862111 4832.280539)
(0 2450.624171 5101.978917)
(0 2127.390772 6189.38044)
(0 -2708.982701 9192.73743)
(0 -14856.8076 13010.2406)
(0 -35423.80984 14739.07264)
(0 -24585.82616 7492.227998)
(0 -1560.658357 7073.337199)
(0 -1919.275939 5871.700898)
(0 -2054.573631 4437.367203)
(0 -1843.745892 3093.527976)
(0 -1458.551581 2006.334746)
(0 -1043.045786 1217.454591)
(0 -684.2497436 694.059746)
(0 -415.7020126 372.9232715)
(0 -235.4534797 189.3441611)
(0 -124.956835 91.04707265)
(0 -62.38385921 41.54601441)
(0 -29.39485643 18.02346926)
(0 -13.10942172 7.446247582)
(0 -5.547389908 2.934475938)
(0 -2.23232114 1.10481053)
(0 -0.8559947365 0.3979693147)
(0 -0.3133613444 0.1373500524)
(0 -0.1097069644 0.04547917361)
(0 -0.0367909635 0.01446648244)
(0 -0.01183655577 0.004426068128)
(0 -0.003658524046 0.001304048539)
(0 -0.001087841826 0.0003704114136)
(0 -0.0003115697759 0.000101545839)
(0 -8.606052385e-05 2.689715478e-05)
(0 -2.295332232e-05 6.890613026e-06)
(0 -5.918125088e-06 1.706724331e-06)
(0 -1.476660771e-06 4.103404056e-07)
(0 -3.581537645e-07 9.482063271e-08)
(0 -8.371508962e-08 2.108170891e-08)
(0 -1.670537202e-08 4.282222122e-09)
(0 -1.411721579e-09 6.117460175e-10)
(0 9.411477192e-11 2.823443158e-10)
(0 -2.023467596e-09 1.411721579e-10)
(0 -3.294017017e-09 -3.294017017e-10)
(0 -1.552893737e-09 2.352869298e-10)
(0 4.799853368e-09 1.882295438e-10)
(0 8.940903332e-09 -1.035262491e-09)
(0 6.540976648e-09 -9.411477192e-11)
(0 2.917557929e-09 0)
(0 6.117460175e-10 4.705738596e-11)
(0 -1.882295438e-09 1.882295438e-10)
(0 -3.999877806e-09 -2.823443158e-10)
(0 403.8037286 5244.452045)
(0 1453.560211 5324.935852)
(0 3013.257021 5564.916454)
(0 4195.604065 6445.875702)
(0 1180.731226 9508.103258)
(0 -11189.04014 14994.6704)
(0 -37571.99321 19470.65308)
(0 -28388.46978 13444.36194)
(0 -2630.193917 12668.11106)
(0 -3662.95339 10257.88709)
(0 -3861.922497 7591.170635)
(0 -3406.912201 5200.834043)
(0 -2654.305884 3324.814647)
(0 -1873.725133 1993.605512)
(0 -1215.925525 1125.334727)
(0 -732.042553 599.6697561)
(0 -411.4856116 302.3616421)
(0 -216.98042 144.5402449)
(0 -107.7366189 65.62652991)
(0 -50.52839661 28.34822132)
(0 -22.44407393 11.66855408)
(0 -9.464387666 4.583664093)
(0 -3.796980746 1.720868194)
(0 -1.452081988 0.6183482513)
(0 -0.5303205645 0.2129408521)
(0 -0.185273781 0.07037091229)
(0 -0.06201606569 0.02234510038)
(0 -0.01991838308 0.006825772089)
(0 -0.006147108822 0.002008197663)
(0 -0.001825274216 0.0005696781732)
(0 -0.0005221166144 0.000155986623)
(0 -0.0001440484465 4.126885691e-05)
(0 -3.837816875e-05 1.056019504e-05)
(0 -9.883462773e-06 2.615825971e-06)
(0 -2.461571859e-06 6.283572747e-07)
(0 -5.94617129e-07 1.489366266e-07)
(0 -1.384898869e-07 3.538715424e-08)
(0 -3.077553042e-08 9.599706736e-09)
(0 -5.552771543e-09 1.552893737e-09)
(0 -1.882295438e-10 -4.705738596e-11)
(0 -2.399926684e-09 0)
(0 -3.294017017e-09 -1.035262491e-09)
(0 -1.176434649e-09 0)
(0 3.811648263e-09 0)
(0 8.893845946e-09 -2.541098842e-09)
(0 7.529181753e-09 0)
(0 2.917557929e-09 -1.411721579e-10)
(0 6.588034034e-10 0)
(0 -1.882295438e-09 0)
(0 -3.999877806e-09 4.705738596e-10)
(0 451.1904196 5751.994151)
(0 1635.32652 5860.194696)
(0 3571.564021 6175.7891)
(0 6070.577577 6949.689647)
(0 5839.811999 9575.206587)
(0 -4894.257784 16838.58263)
(0 -36974.11831 25533.23592)
(0 -31388.36817 23349.33254)
(0 -4747.133207 21885.57859)
(0 -6996.216364 17189.05909)
(0 -7111.62668 12417.52001)
(0 -6110.10188 8345.445605)
(0 -4665.780111 5253.211504)
(0 -3242.525705 3110.601042)
(0 -2078.1855 1737.905478)
(0 -1238.675098 918.2852113)
(0 -690.5829909 459.7621709)
(0 -361.6919472 218.4899414)
(0 -178.5758828 98.70881937)
(0 -83.35283226 42.45783375)
(0 -36.87397894 17.41271125)
(0 -15.4950758 6.818581579)
(0 -6.197636982 2.55292327)
(0 -2.363922079 0.9151223145)
(0 -0.8613386834 0.3144732095)
(0 -0.3003027161 0.1037288969)
(0 -0.1003361037 0.03288199712)
(0 -0.03217345853 0.01002931691)
(0 -0.009914617915 0.002946680428)
(0 -0.002940052866 0.0008348681895)
(0 -0.0008399790922 0.0002283402714)
(0 -0.0002314869988 6.034860345e-05)
(0 -6.160635326e-05 1.542804633e-05)
(0 -1.58499158e-05 3.820965625e-06)
(0 -3.943597173e-06 9.167249359e-07)
(0 -9.510297702e-07 2.156169425e-07)
(0 -2.229578947e-07 5.16219524e-08)
(0 -5.058668991e-08 1.270549421e-08)
(0 -1.10584857e-08 3.576361333e-09)
(0 -1.552893737e-09 -3.294017017e-10)
(0 -3.011672701e-09 0)
(0 -3.294017017e-09 -6.588034034e-10)
(0 -5.176312455e-10 0)
(0 2.21169714e-09 0)
(0 8.893845946e-09 -2.258754526e-09)
(0 9.035018104e-09 -6.588034034e-10)
(0 2.964615315e-09 -1.882295438e-10)
(0 7.058607894e-10 0)
(0 -1.458778965e-09 0)
(0 -4.42339428e-09 4.235164736e-10)
(0 512.0042736 6277.32233)
(0 1877.35516 6424.037465)
(0 4102.751971 6861.808805)
(0 7595.021552 7730.30156)
(0 11069.62421 10019.48888)
(0 4768.989194 17745.00732)
(0 -31061.2433 32440.14867)
(0 -32036.12711 38675.84916)
(0 -8790.467364 36185.12773)
(0 -13131.01198 27464.80976)
(0 -12705.53598 19330.14094)
(0 -10571.2207 12730.10915)
(0 -7889.150447 7885.660648)
(0 -5389.031159 4609.79342)
(0 -3408.241356 2548.907118)
(0 -2010.18586 1335.434129)
(0 -1111.280882 663.9593271)
(0 -578.0337715 313.6989283)
(0 -283.7687265 141.0316503)
(0 -131.8245047 60.41194078)
(0 -58.0833261 24.68871513)
(0 -24.32417565 9.638449905)
(0 -9.70044001 3.599211732)
(0 -3.690532048 1.287212134)
(0 -1.341713982 0.4414448357)
(0 -0.4668649934 0.1453500547)
(0 -0.1557156457 0.04600248059)
(0 -0.04985369978 0.01401115785)
(0 -0.01534155758 0.004111272756)
(0 -0.004543614325 0.00116347001)
(0 -0.001296636247 0.0003178764538)
(0 -0.0003569605775 8.393197711e-05)
(0 -9.490585363e-05 2.143736863e-05)
(0 -2.439473711e-05 5.304496775e-06)
(0 -6.066920542e-06 1.27290229e-06)
(0 -1.459720112e-06 2.964144742e-07)
(0 -3.415425073e-07 7.049196417e-08)
(0 -7.882112148e-08 1.661125724e-08)
(0 -1.858766745e-08 5.035140298e-09)
(0 -3.764590877e-09 2.023467596e-09)
(0 -2.682271e-09 -2.588156228e-09)
(0 -3.294017017e-09 -7.058607894e-10)
(0 -5.176312455e-10 -9.411477192e-11)
(0 1.599951123e-09 5.646886315e-10)
(0 8.235042543e-09 -2.305811912e-09)
(0 9.458534578e-09 -1.647008509e-09)
(0 3.670476105e-09 -1.129377263e-09)
(0 8.470329473e-10 -1.411721579e-10)
(0 -1.458778965e-09 -9.411477192e-11)
(0 -4.42339428e-09 -2.352869298e-10)
(0 597.9055547 6773.163473)
(0 2219.812995 6981.395752)
(0 4877.828116 7582.914336)
(0 9228.257651 8851.407262)
(0 15854.51776 11284.79256)
(0 17526.40201 18032.15126)
(0 -16043.27646 39046.39099)
(0 -27643.38911 60304.45567)
(0 -15958.17261 56789.63444)
(0 -23851.20316 41583.31646)
(0 -21846.32729 28489.39741)
(0 -17554.58217 18378.13418)
(0 -12786.09584 11201.95722)
(0 -8579.279236 6465.213769)
(0 -5352.54479 3538.371484)
(0 -3123.622888 1838.501907)
(0 -1712.318192 907.8812436)
(0 -884.619624 426.5381362)
(0 -431.8628703 190.8632282)
(0 -199.6957674 81.43491457)
(0 -87.64746982 33.16855302)
(0 -36.5845792 12.91172436)
(0 -14.54887475 4.809543214)
(0 -5.521688975 1.71635054)
(0 -2.003200763 0.5874997755)
(0 -0.6957450713 0.1931161348)
(0 -0.2316750007 0.06102922788)
(0 -0.07406466627 0.01856318411)
(0 -0.0227623058 0.005440452621)
(0 -0.006733449074 0.001537955464)
(0 -0.001919517172 0.0004197796937)
(0 -0.0005279262252 0.0001107363347)
(0 -0.0001402337395 2.826017197e-05)
(0 -3.601428802e-05 6.98486897e-06)
(0 -8.951679474e-06 1.675525284e-06)
(0 -2.153487154e-06 3.903880739e-07)
(0 -5.02808169e-07 9.011489411e-08)
(0 -1.160435138e-07 2.023467596e-08)
(0 -2.559921796e-08 5.176312455e-09)
(0 -9.129132876e-09 3.058730087e-09)
(0 -5.788058473e-09 -2.870500543e-09)
(0 -7.999755613e-10 4.705738596e-11)
(0 7.999755613e-10 -3.764590877e-10)
(0 0 -1.882295438e-10)
(0 6.682148806e-09 -1.129377263e-09)
(0 1.016439537e-08 -2.258754526e-09)
(0 4.517509052e-09 3.294017017e-10)
(0 1.694065895e-09 2.023467596e-09)
(0 -1.599951123e-09 -3.294017017e-10)
(0 -4.046935192e-09 -2.823443158e-10)
(0 720.2365526 7169.33967)
(0 2687.106023 7456.224788)
(0 5972.763481 8260.898549)
(0 11296.89977 10048.84036)
(0 20250.36821 13440.04922)
(0 32530.58762 20487.69653)
(0 11211.06111 43437.04405)
(0 -14292.88366 87622.67809)
(0 -27511.60658 83892.16908)
(0 -41431.24901 59259.64795)
(0 -35910.71826 39527.59682)
(0 -27858.66089 24984.14141)
(0 -19802.07086 14989.76447)
(0 -13052.6169 8544.559507)
(0 -8034.953218 4630.381363)
(0 -4640.676101 2386.824289)
(0 -2523.244652 1171.039388)
(0 -1295.051787 547.2502042)
(0 -628.8719481 243.7966352)
(0 -289.51918 103.6343137)
(0 -126.6065163 42.07795309)
(0 -52.68318545 16.33604655)
(0 -20.89581383 6.071041539)
(0 -7.912575487 2.162194027)
(0 -2.864948388 0.7388139796)
(0 -0.993335541 0.242479835)
(0 -0.3302685964 0.07652453724)
(0 -0.1054424751 0.0232479808)
(0 -0.03236678623 0.006806005728)
(0 -0.009564287253 0.001922081799)
(0 -0.002723855376 0.0005241534463)
(0 -0.000748480005 0.0001381558265)
(0 -0.0001986573194 3.523162958e-05)
(0 -5.097957202e-05 8.699593057e-06)
(0 -1.266135438e-05 2.083136362e-06)
(0 -3.045130503e-06 4.851616492e-07)
(0 -7.116488479e-07 1.091731354e-07)
(0 -1.637126457e-07 2.343457821e-08)
(0 -3.581067071e-08 3.623418719e-09)
(0 -1.17172891e-08 -7.529181753e-10)
(0 -5.646886315e-09 -4.235164736e-10)
(0 -8.470329473e-10 2.823443158e-10)
(0 -7.999755613e-10 7.529181753e-10)
(0 7.999755613e-10 -5.176312455e-10)
(0 6.211574947e-09 0)
(0 1.091731354e-08 -1.317606807e-09)
(0 7.905640841e-09 -8.470329473e-10)