/*--------------------------------*- C++ -*----------------------------------*\
  =========                 |
  \\      /  F ield         | OpenFOAM: The Open Source CFD Toolbox
   \\    /   O peration     | Website:  https://openfoam.org
    \\  /    A nd           | Version:  6
     \\/     M anipulation  |
\*---------------------------------------------------------------------------*/
FoamFile
{
    version     2.0;
    format      ascii;
    class       volVectorField;
    location    "0.1";
    object      Marangoni;
}
// * * * * * * * * * * * * * * * * * * * * * * * * * * * * * * * * * * * * * //

dimensions      [1 -2 -2 0 0 0 0];

internalField   nonuniform List<vector> 
2500
(
(-0 1.319522827e-11 -2.14155926e-10)
(-0 2.743018787e-11 -1.751017773e-10)
(-0 2.531712982e-11 -1.295909114e-10)
(-0 1.946935035e-11 -9.486856373e-11)
(-0 1.932592016e-11 -8.44828713e-11)
(-0 9.475650629e-12 -3.166496296e-11)
(-0 2.320840308e-07 -4.315668697e-07)
(-0 4.496833543e-06 -7.394759022)
(-0 1.452142157e-07 -2.951043765)
(-0 1.321906613e-09 -3.952555316e-09)
(-0 5.604384419e-15 -1.560425218e-14)
(-0 3.694856784e-15 -9.536966813e-15)
(-0 2.623862114e-15 -6.323207279e-15)
(-0 1.565186875e-15 -3.578190399e-15)
(-0 7.651218745e-16 -1.692703213e-15)
(-0 2.121369188e-16 -4.632008843e-16)
(-0 1.749450059e-16 -3.828139536e-16)
(-0 4.603780901e-17 -1.017101683e-16)
(-0 3.160236689e-17 -7.038891909e-17)
(-0 9.262015213e-18 -2.06244926e-17)
(-0 3.709593697e-18 -8.163161789e-18)
(-0 1.811509413e-18 -3.89487111e-18)
(-0 8.119269716e-19 -1.690181647e-18)
(-0 2.433406349e-19 -4.873666133e-19)
(-0 7.801387095e-20 -1.497277986e-19)
(-0 2.330890696e-20 -4.277496185e-20)
(-0 5.913534521e-21 -1.038056012e-20)
(-0 3.198729121e-21 -5.366013746e-21)
(-0 3.756728388e-22 -5.946389387e-22)
(-0 1.763642641e-22 -2.575891145e-22)
(-0 4.576474642e-23 -5.283487426e-23)
(-0 1.650581844e-23 -3.373451944e-24)
(-0 -2.353814848e-25 4.354557468e-24)
(-0 1.953596098e-25 8.498143027e-24)
(-0 1.274256054e-24 2.639530399e-24)
(-0 4.788845997e-24 7.087492076e-24)
(-0 -1.205391372e-23 2.521805633e-23)
(-0 -1.214458669e-23 -5.217674282e-24)
(-0 -0 -0)
(-0 0 -0)
(-0 0 0)
(-0 0 0)
(-0 0 0)
(-0 -0 0)
(-0 -0 -0)
(-0 -0 -0)
(-0 -0 -0)
(-0 0 -0)
(-0 0 -0)
(-0 0 -0)
(-0 1.635822452e-11 -1.183067025e-10)
(-0 5.4502373e-11 -1.525030138e-10)
(-0 3.991055677e-11 -8.148272313e-11)
(-0 4.820855365e-11 -8.211440586e-11)
(-0 3.249428606e-11 -4.656916096e-11)
(-0 2.228353192e-12 -2.463088311e-12)
(-0 2.827149154e-07 -1.781059544e-07)
(-0 1.235717598e-05 -7.143168242)
(-0 3.963194586e-07 -3.001667519)
(-0 1.385465819e-09 -1.468886546e-09)
(-0 3.829492227e-14 -3.812107808e-14)
(-0 2.355574935e-14 -2.221885547e-14)
(-0 2.148570698e-14 -1.955060171e-14)
(-0 6.082617226e-15 -5.4695912e-15)
(-0 3.012403154e-15 -2.744333362e-15)
(-0 9.152735154e-16 -8.616677227e-16)
(-0 1.61593503e-16 -1.587708925e-16)
(-0 5.988246714e-17 -6.128258107e-17)
(-0 3.310159587e-17 -3.486611245e-17)
(-0 1.913745436e-17 -2.039446293e-17)
(-0 7.237453157e-18 -7.66801396e-18)
(-0 3.153516645e-18 -3.273145525e-18)
(-0 2.985740415e-18 -3.003331793e-18)
(-0 9.129509046e-19 -8.836845497e-19)
(-0 3.660215486e-19 -3.395017713e-19)
(-0 1.150640608e-19 -1.020605638e-19)
(-0 3.583298619e-20 -3.036974139e-20)
(-0 2.354228497e-20 -1.906244372e-20)
(-0 5.183593237e-21 -4.012152424e-21)
(-0 1.159652007e-21 -8.562401563e-22)
(-0 2.406623763e-22 -1.637973437e-22)
(-0 1.245824302e-22 -9.494608119e-23)
(-0 2.344676636e-23 -2.881170442e-23)
(-0 5.313254547e-24 -2.572733781e-23)
(-0 -1.099985662e-23 -2.173142405e-23)
(-0 9.505942099e-24 -2.889806398e-23)
(-0 -1.346107689e-23 -1.730709886e-23)
(-0 -3.731379328e-23 3.904931855e-24)
(-0 -2.98122397e-25 1.863264981e-25)
(-0 0 -0)
(-0 0 0)
(-0 0 0)
(-0 0 0)
(-0 -0 0)
(-0 -0 0)
(-0 -0 -0)
(-0 -0 -0)
(-0 -0 -0)
(-0 0 -0)
(-0 0 -0)
(-0 3.462914072e-12 -1.757891601e-11)
(-0 2.38963377e-11 -4.627823579e-11)
(-0 1.481439134e-11 -2.031346044e-11)
(-0 3.945718219e-11 -4.400546378e-11)
(-0 7.719915572e-12 -7.131530222e-12)
(-0 1.905989346e-14 -1.353841077e-14)
(-0 1.242704817e-07 -5.073434665e-08)
(-0 2.024300204e-05 -7.595111277)
(-0 6.436524911e-07 -3.278446459)
(-0 7.103080404e-10 -5.088723953e-10)
(-0 8.172635177e-14 -5.696461646e-14)
(-0 5.467679206e-14 -3.791308771e-14)
(-0 1.038102032e-14 -7.351123551e-15)
(-0 7.490319179e-15 -5.556605162e-15)
(-0 4.500272037e-15 -3.561514994e-15)
(-0 3.555744234e-15 -3.019858402e-15)
(-0 1.170074494e-15 -1.05851895e-15)
(-0 6.16501875e-16 -5.83642771e-16)
(-0 3.326184631e-16 -3.221964945e-16)
(-0 1.180393281e-16 -1.144575766e-16)
(-0 4.147369739e-17 -3.953592447e-17)
(-0 1.712685083e-17 -1.58412864e-17)
(-0 4.056055048e-18 -3.608809074e-18)
(-0 1.568958389e-18 -1.335989347e-18)
(-0 3.299622557e-19 -2.681999728e-19)
(-0 8.229555397e-20 -6.379216186e-20)
(-0 5.472584655e-20 -4.046130936e-20)
(-0 1.119725018e-20 -7.904539484e-21)
(-0 1.356410754e-20 -9.151392083e-21)
(-0 3.152718524e-21 -2.033736114e-21)
(-0 1.015593481e-21 -6.350779634e-22)
(-0 2.785273756e-22 -1.832784654e-22)
(-0 5.637548323e-23 -5.548063429e-23)
(-0 1.511032279e-23 -3.777580697e-23)
(-0 -8.208359908e-24 -3.01855816e-23)
(-0 1.537154251e-23 -3.401898752e-23)
(-0 1.935870321e-23 -1.683365497e-23)
(-0 -1.629422168e-23 1.886699352e-23)
(-0 -1.025065848e-23 1.405804592e-23)
(-0 2.382207389e-24 2.958296758e-25)
(-0 0 0)
(-0 -0 0)
(-0 -0 0)
(-0 -0 0)
(-0 -0 0)
(-0 -0 0)
(-0 -0 0)
(-0 -0 -0)
(-0 0 -0)
(-0 0 -0)
(-0 1.372164987e-12 -6.130478422e-12)
(-0 1.543479468e-11 -2.584054314e-11)
(-0 1.622043255e-11 -1.875207048e-11)
(-0 4.239172342e-11 -3.909299623e-11)
(-0 5.413122681e-11 -4.086413874e-11)
(-0 3.469783796e-12 -1.950142096e-12)
(-0 8.381189554e-08 -2.641870348e-08)
(-0 2.874907932e-05 -8.566651064)
(-0 9.094066761e-07 -3.901986316)
(-0 5.061548963e-10 -3.192250607e-10)
(-0 1.033838596e-13 -6.723882869e-14)
(-0 2.567030913e-14 -1.764730516e-14)
(-0 5.895265341e-14 -4.367343535e-14)
(-0 2.902027707e-14 -2.339452314e-14)
(-0 1.323492461e-14 -1.157750846e-14)
(-0 5.364663183e-15 -5.017296743e-15)
(-0 1.817670281e-15 -1.776385596e-15)
(-0 5.391304051e-16 -5.367828837e-16)
(-0 1.831783762e-16 -1.81567059e-16)
(-0 1.194349929e-16 -1.157280591e-16)
(-0 8.697899644e-17 -8.133742115e-17)
(-0 1.872128104e-17 -1.675859337e-17)
(-0 1.721713047e-17 -1.468547122e-17)
(-0 4.972927705e-18 -4.033077988e-18)
(-0 2.485521601e-18 -1.915635646e-18)
(-0 3.781602775e-19 -2.771096495e-19)
(-0 2.522118413e-19 -1.759123653e-19)
(-0 1.199439352e-19 -7.975769018e-20)
(-0 1.07100863e-20 -6.798347172e-21)
(-0 2.548097805e-21 -1.549873243e-21)
(-0 1.971067062e-21 -1.153452268e-21)
(-0 4.228406542e-22 -2.475969999e-22)
(-0 1.636837706e-22 -9.381606719e-23)
(-0 1.754531053e-23 -1.332987878e-23)
(-0 -3.256282009e-24 -1.649849551e-23)
(-0 1.464616395e-23 -4.411495165e-24)
(-0 3.67778975e-23 -1.939656238e-23)
(-0 9.442763251e-25 -3.588250035e-24)
(-0 -1.351165201e-23 1.560828767e-23)
(-0 8.91921407e-24 1.158578322e-23)
(-0 0 0)
(-0 0 0)
(-0 -0 0)
(-0 -0 -0)
(-0 -0 -0)
(-0 -0 0)
(-0 -0 0)
(-0 -0 0)
(-0 0 0)
(-0 0 0)
(-0 4.812532511e-13 -2.251555489e-12)
(-0 1.207254993e-11 -2.045718388e-11)
(-0 1.83750438e-11 -2.048948634e-11)
(-0 2.018678599e-13 -1.706914525e-13)
(-0 5.873650669e-11 -3.943721535e-11)
(-0 4.559394622e-11 -2.19460951e-11)
(-0 7.060982667e-07 -1.853892381e-07)
(-0 3.790873034e-05 -10.22951875)
(-0 1.198605184e-06 -5.176331601)
(-0 4.196930879e-09 -2.843178605e-09)
(-0 7.939344552e-14 -5.885083966e-14)
(-0 1.219236029e-13 -9.968474774e-14)
(-0 6.354426911e-14 -5.707596833e-14)
(-0 1.19947427e-14 -1.166206193e-14)
(-0 1.089462976e-14 -1.120620344e-14)
(-0 1.84678967e-15 -1.956729063e-15)
(-0 3.617763626e-15 -3.847545729e-15)
(-0 1.393276486e-15 -1.455397031e-15)
(-0 3.602856071e-16 -3.637244323e-16)
(-0 1.252105152e-16 -1.208530162e-16)
(-0 1.014553441e-16 -9.302264738e-17)
(-0 1.477650194e-18 -1.282841404e-18)
(-0 1.449658108e-17 -1.190368401e-17)
(-0 5.145782241e-18 -3.997648695e-18)
(-0 2.040030836e-18 -1.501096847e-18)
(-0 9.515336431e-19 -6.641957903e-19)
(-0 6.995416361e-19 -4.640642993e-19)
(-0 1.933519581e-19 -1.221322541e-19)
(-0 7.196161996e-20 -4.335796268e-20)
(-0 1.620087068e-20 -9.329230569e-21)
(-0 6.973636094e-21 -3.845238827e-21)
(-0 1.156706588e-21 -6.143425271e-22)
(-0 9.730943501e-23 -4.616540638e-23)
(-0 5.214146945e-23 -1.925608224e-23)
(-0 6.248811585e-24 6.354723645e-24)
(-0 1.364682334e-23 1.978789384e-23)
(-0 2.065674098e-23 -8.009756707e-24)
(-0 2.291383795e-23 -1.267000451e-23)
(-0 1.425891315e-23 1.53996262e-23)
(-0 1.737142034e-23 1.914401425e-23)
(-0 8.580790596e-25 5.951193478e-25)
(-0 -0 -0)
(-0 -0 -0)
(-0 -0 -0)
(-0 -0 -0)
(-0 -0 0)
(-0 -0 0)
(-0 -0 0)
(-0 0 -0)
(-0 0 0)
(-0 8.65870708e-14 -4.99325046e-13)
(-0 6.854253153e-12 -1.331012557e-11)
(-0 2.39912748e-11 -2.816029622e-11)
(-0 6.161416801e-12 -5.095221851e-12)
(-0 3.969779115e-11 -2.447710475e-11)
(-0 7.218070962e-11 -3.166637112e-11)
(-0 1.729347398e-06 -3.948238526e-07)
(-0 4.786830679e-05 -13.28047218)
(-0 1.523848636e-06 -7.804560736)
(-0 1.080134493e-08 -9.188628465e-09)
(-0 1.675113706e-13 -1.603482877e-13)
(-0 2.194315469e-13 -2.314874055e-13)
(-0 1.628680557e-14 -1.838779475e-14)
(-0 1.41688612e-14 -1.65876296e-14)
(-0 1.184617205e-14 -1.396269123e-14)
(-0 7.698957194e-15 -8.913643093e-15)
(-0 3.816747438e-15 -4.260622216e-15)
(-0 3.523661005e-15 -3.744806713e-15)
(-0 8.174303537e-16 -8.207291784e-16)
(-0 4.621140182e-16 -4.366095437e-16)
(-0 2.172299106e-16 -1.928697714e-16)
(-0 7.034293881e-17 -5.870825189e-17)
(-0 3.136585051e-17 -2.464025916e-17)
(-0 3.673960633e-18 -2.721795075e-18)
(-0 8.96927257e-18 -6.279953098e-18)
(-0 2.670919757e-18 -1.771440734e-18)
(-0 9.346897985e-19 -5.885581856e-19)
(-0 2.136488824e-19 -1.280004847e-19)
(-0 1.077570895e-19 -6.15530867e-20)
(-0 2.902179568e-20 -1.584066393e-20)
(-0 1.223400126e-20 -6.388621512e-21)
(-0 4.468342832e-21 -2.228406677e-21)
(-0 7.473522328e-22 -3.528329595e-22)
(-0 1.078582756e-22 -4.169631482e-23)
(-0 1.802326771e-23 2.472218137e-24)
(-0 -2.621581384e-24 2.378148827e-23)
(-0 3.28557977e-24 2.031085676e-23)
(-0 2.913679684e-23 -9.323774988e-25)
(-0 2.521785979e-23 1.252651859e-23)
(-0 1.192522943e-23 5.903578924e-24)
(-0 2.107137691e-24 4.722894824e-25)
(-0 0 -0)
(-0 -0 0)
(-0 -0 0)
(-0 -0 0)
(-0 -0 0)
(-0 -0 0)
(-0 -0 0)
(-0 0 0)
(-0 0 -0)
(-0 6.892271604e-14 -6.335234379e-13)
(-0 3.080790869e-13 -8.003962485e-13)
(-0 1.819216065e-11 -2.45661772e-11)
(-0 2.196965763e-11 -1.896478918e-11)
(-0 1.777421461e-11 -1.061260798e-11)
(-0 5.645056067e-11 -2.350136821e-11)
(-0 2.44111806e-06 -5.124249127e-07)
(-0 5.851264432e-05 -19.34685646)
(-0 1.897948279e-06 -13.22960216)
(-0 1.611057954e-08 -1.883592027e-08)
(-0 5.376276354e-13 -6.920688411e-13)
(-0 1.374521084e-13 -1.86077165e-13)
(-0 1.450324292e-14 -1.981702023e-14)
(-0 4.293373311e-14 -5.736696059e-14)
(-0 3.806891415e-14 -4.86526062e-14)
(-0 9.756037746e-15 -1.175752276e-14)
(-0 1.280881769e-14 -1.443831352e-14)
(-0 7.508794772e-15 -7.886213497e-15)
(-0 2.730998276e-15 -2.669880546e-15)
(-0 8.830071145e-16 -8.042388002e-16)
(-0 3.297836447e-16 -2.803832344e-16)
(-0 3.960530054e-17 -3.151269976e-17)
(-0 4.873422244e-17 -3.63913359e-17)
(-0 3.315251983e-17 -2.330035415e-17)
(-0 4.839804983e-18 -3.210576391e-18)
(-0 1.100490132e-17 -6.909154906e-18)
(-0 2.465439317e-18 -1.468671288e-18)
(-0 7.512299675e-19 -4.256218152e-19)
(-0 2.845537739e-19 -1.536834733e-19)
(-0 5.157119044e-20 -2.660658019e-20)
(-0 2.229181729e-20 -1.099971827e-20)
(-0 7.270517011e-21 -3.434437011e-21)
(-0 1.224375681e-21 -5.542528704e-22)
(-0 3.380313938e-22 -1.427038502e-22)
(-0 5.04372083e-23 -1.767734953e-23)
(-0 2.61320351e-23 1.077609695e-23)
(-0 -6.314640484e-24 5.661401813e-24)
(-0 1.765741801e-23 3.838569132e-24)
(-0 3.224211534e-23 2.518915261e-24)
(-0 1.573433276e-23 3.702195943e-25)
(-0 1.911647905e-24 -8.234790976e-25)
(-0 -0 0)
(-0 -0 -0)
(-0 -0 0)
(-0 -0 0)
(-0 -0 0)
(-0 -0 0)
(-0 -0 0)
(-0 0 0)
(-0 0 0)
(-0 5.554653789e-14 -1.897912671e-12)
(-0 2.195833286e-13 -1.040295116e-12)
(-0 1.139411745e-11 -2.00146609e-11)
(-0 3.977433923e-11 -3.86207718e-11)
(-0 6.393237048e-11 -3.983694907e-11)
(-0 1.136058096e-10 -4.710983205e-11)
(-0 3.083172121e-06 -6.775640773e-07)
(-0 7.055053328e-05 -31.82127287)
(-0 2.349498857e-06 -24.28734016)
(-0 2.231298486e-08 -3.643189186e-08)
(-0 5.009102579e-13 -8.401668149e-13)
(-0 5.658506619e-14 -9.258346583e-14)
(-0 5.876656285e-14 -9.073285541e-14)
(-0 8.443116195e-14 -1.207963534e-13)
(-0 4.260556261e-14 -5.601073961e-14)
(-0 2.39819188e-14 -2.889355629e-14)
(-0 2.211751686e-14 -2.443805486e-14)
(-0 1.22944912e-14 -1.248962764e-14)
(-0 1.051314369e-14 -9.853329032e-15)
(-0 3.459492064e-15 -3.002986889e-15)
(-0 6.228027883e-16 -5.026916608e-16)
(-0 3.510560864e-17 -2.644957889e-17)
(-0 9.723134133e-17 -6.863412846e-17)
(-0 6.196086062e-17 -4.111899171e-17)
(-0 2.068192745e-17 -1.294490043e-17)
(-0 5.577688255e-18 -3.302393417e-18)
(-0 4.826600984e-18 -2.710594373e-18)
(-0 9.252053101e-19 -4.940800459e-19)
(-0 4.101651085e-19 -2.087655253e-19)
(-0 1.49510051e-19 -7.267502084e-20)
(-0 3.723693509e-20 -1.731779395e-20)
(-0 1.50314368e-20 -6.699475536e-21)
(-0 3.865152616e-21 -1.653920534e-21)
(-0 6.124407373e-22 -2.514278559e-22)
(-0 2.651163923e-22 -9.787098842e-23)
(-0 4.120925279e-23 -1.583587007e-23)
(-0 -1.564763919e-24 -1.1579253e-23)
(-0 2.494742445e-23 1.587563374e-24)
(-0 3.198182134e-23 -7.58087617e-24)
(-0 1.166242651e-23 9.255894053e-25)
(-0 2.288787492e-24 -1.489528368e-24)
(-0 0 0)
(-0 -0 0)
(-0 -0 -0)
(-0 -0 0)
(-0 -0 0)
(-0 -0 -0)
(-0 -0 -0)
(-0 0 0)
(-0 0 0)
(-0 -1.22654358e-13 -3.094695455e-12)
(-0 1.218267421e-14 -5.962885185e-13)
(-0 5.423841295e-13 -1.56880683e-12)
(-0 4.549426099e-11 -5.463611457e-11)
(-0 7.667430855e-11 -5.337078395e-11)
(-0 2.359162106e-10 -1.041374224e-10)
(-0 3.907548051e-06 -9.724291622e-07)
(-0 8.6014916e-05 -56.16566443)
(-0 2.974306102e-06 -46.26980897)
(-0 3.64141531e-08 -7.932314632e-08)
(-0 1.19577641e-12 -2.427645675e-12)
(-0 2.269215348e-13 -4.153388118e-13)
(-0 7.831518436e-14 -1.277260512e-13)
(-0 2.580531044e-13 -3.748834646e-13)
(-0 2.301254196e-13 -2.991321407e-13)
(-0 7.568585249e-14 -8.85838745e-14)
(-0 6.089960381e-14 -6.461034696e-14)
(-0 8.92429619e-15 -8.638464234e-15)
(-0 2.522304889e-14 -2.241204751e-14)
(-0 8.40613494e-15 -6.894984221e-15)
(-0 1.000322155e-15 -7.612777252e-16)
(-0 5.671971354e-16 -4.023546621e-16)
(-0 2.118005302e-16 -1.406330983e-16)
(-0 7.657798558e-17 -4.777382028e-17)
(-0 3.277112565e-17 -1.927468644e-17)
(-0 1.060736042e-17 -5.90009768e-18)
(-0 3.215795792e-18 -1.696366865e-18)
(-0 3.738244949e-18 -1.874961902e-18)
(-0 1.266691352e-18 -6.054930495e-19)
(-0 2.845417057e-19 -1.299024808e-19)
(-0 6.734016201e-20 -2.942127948e-20)
(-0 3.24672361e-20 -1.359906554e-20)
(-0 6.585844725e-21 -2.646870061e-21)
(-0 2.392446489e-21 -9.184460874e-22)
(-0 5.67949758e-22 -2.018591563e-22)
(-0 7.785709523e-23 -3.684042629e-23)
(-0 9.15275685e-24 -2.816232877e-25)
(-0 3.030291588e-23 8.885817439e-24)
(-0 3.108485477e-23 4.160964812e-24)
(-0 1.169473856e-23 -3.160740151e-25)
(-0 2.146927647e-24 -7.352491942e-25)
(-0 0 -0)
(-0 -0 -0)
(-0 -0 0)
(-0 -0 0)
(-0 -0 -0)
(-0 -0 0)
(-0 -0 -0)
(-0 0 0)
(-0 0 -0)
(-0 -1.450270369e-13 -2.029118814e-12)
(-0 -2.42663901e-13 -1.784587959e-12)
(-0 1.358930001e-13 -1.480990779e-12)
(-0 2.171124581e-11 -3.712611626e-11)
(-0 1.302596248e-10 -1.073800685e-10)
(-0 1.510069588e-10 -7.393596522e-11)
(-0 1.533189844e-06 -4.311878305e-07)
(-0 0.0001077991985 -101.4980448)
(-0 3.962643165e-06 -88.86818604)
(-0 6.353436014e-08 -1.707033636e-07)
(-0 9.587925316e-13 -2.168876782e-12)
(-0 5.460480861e-13 -1.043336328e-12)
(-0 7.883340794e-13 -1.288930351e-12)
(-0 3.52472649e-13 -5.005811805e-13)
(-0 1.451840951e-13 -1.815990167e-13)
(-0 4.067363453e-14 -4.535042811e-14)
(-0 8.488070002e-14 -8.523568116e-14)
(-0 2.536235499e-14 -2.31401942e-14)
(-0 2.687736239e-14 -2.244985652e-14)
(-0 2.641537654e-14 -2.033189108e-14)
(-0 3.892100176e-15 -2.776393442e-15)
(-0 2.763496844e-15 -1.836169779e-15)
(-0 4.570428809e-16 -2.841163033e-16)
(-0 4.776338178e-16 -2.788912452e-16)
(-0 6.570823606e-17 -3.616545892e-17)
(-0 3.878330788e-17 -2.018513516e-17)
(-0 2.101088688e-17 -1.037022316e-17)
(-0 1.171860096e-17 -5.499258621e-18)
(-0 2.972332926e-18 -1.329346832e-18)
(-0 1.960580252e-19 -8.37474989e-20)
(-0 4.406659981e-20 -1.801338798e-20)
(-0 5.290299602e-20 -2.073125928e-20)
(-0 2.022063342e-20 -7.597752121e-21)
(-0 3.059249269e-21 -1.099424472e-21)
(-0 9.947682014e-22 -3.479804674e-22)
(-0 2.22341863e-22 -7.794956799e-23)
(-0 5.182394778e-23 2.826760788e-24)
(-0 2.962363101e-23 1.584519798e-23)
(-0 1.566055058e-23 7.497072087e-24)
(-0 2.515177483e-24 1.197703563e-24)
(-0 1.124498768e-24 -6.072293345e-25)
(-0 0 -0)
(-0 0 -0)
(-0 -0 0)
(-0 -0 0)
(-0 -0 0)
(-0 -0 0)
(-0 -0 0)
(-0 0 -0)
(-0 0 0)
(-0 -4.065331338e-14 -5.353988277e-13)
(-0 -5.222911005e-13 -2.347985475e-12)
(-0 -4.926780884e-14 -3.190103164e-13)
(-0 9.802150687e-13 -3.283026112e-12)
(-0 1.226559428e-10 -1.290951296e-10)
(-0 2.065424839e-10 -1.157935854e-10)
(-0 4.19508927e-05 -1.444190638e-05)
(-0 0.0001661310968 -185.7001264)
(-0 5.536944045e-06 -169.7459968)
(-0 8.491932792e-08 -2.578581447e-07)
(-0 7.640211072e-13 -1.792023885e-12)
(-0 1.674790424e-12 -3.170278467e-12)
(-0 7.310180049e-13 -1.154946631e-12)
(-0 5.186847116e-13 -7.017013965e-13)
(-0 2.007895561e-13 -2.372075241e-13)
(-0 1.984027647e-13 -2.07843706e-13)
(-0 3.571217863e-14 -3.358405537e-14)
(-0 1.136723349e-13 -9.692735679e-14)
(-0 4.688892389e-14 -3.655542187e-14)
(-0 3.340485462e-14 -2.397927552e-14)
(-0 6.678959961e-15 -4.441168123e-15)
(-0 4.330771992e-15 -2.681533758e-15)
(-0 2.329465717e-15 -1.34923674e-15)
(-0 1.990930271e-16 -1.083060625e-16)
(-0 4.998122482e-16 -2.562860255e-16)
(-0 1.374993084e-16 -6.667027607e-17)
(-0 6.48359975e-17 -2.98135914e-17)
(-0 1.566952006e-17 -6.850993269e-18)
(-0 1.624469132e-18 -6.76919902e-19)
(-0 1.101819382e-18 -4.385306444e-19)
(-0 4.114792359e-19 -1.567344207e-19)
(-0 1.306094511e-19 -4.769181461e-20)
(-0 2.436148322e-20 -8.534402463e-21)
(-0 7.370220493e-21 -2.475765508e-21)
(-0 2.094556205e-21 -6.754727533e-22)
(-0 3.831176082e-22 -1.08957105e-22)
(-0 1.269286405e-22 -1.349331493e-23)
(-0 2.35282154e-23 8.894813138e-24)
(-0 1.102057622e-23 4.842374401e-24)
(-0 4.587072927e-25 -1.146768232e-25)
(-0 2.767996967e-25 2.767996967e-26)
(-0 0 -0)
(-0 0 0)
(-0 -0 0)
(-0 -0 0)
(-0 -0 -0)
(-0 -0 0)
(-0 -0 0)
(-0 0 0)
(-0 0 0)
(-0 -1.377905168e-14 -1.729832088e-13)
(-0 -3.893750338e-13 -1.527943825e-12)
(-0 -4.694536242e-13 -1.35094272e-12)
(-0 -1.63141432e-14 -9.607624557e-13)
(-0 4.23636507e-12 -6.547186786e-12)
(-0 2.434426938e-10 -1.636475484e-10)
(-0 0.0001786198866 -0.0001816563027)
(-0 0.0001737343547 -341.4200445)
(-0 8.029172313e-06 -319.6655049)
(-0 1.071782954e-07 -3.38550013e-07)
(-0 3.034952073e-12 -6.976426205e-12)
(-0 2.656525674e-12 -4.798661517e-12)
(-0 2.086979311e-12 -3.105506984e-12)
(-0 1.383106939e-12 -1.750101854e-12)
(-0 7.649337257e-13 -8.419335565e-13)
(-0 4.920197654e-13 -4.791383123e-13)
(-0 4.599949432e-13 -4.015942959e-13)
(-0 5.796857511e-14 -4.585326737e-14)
(-0 6.727322588e-14 -4.863216048e-14)
(-0 7.037101432e-14 -4.682986334e-14)
(-0 1.992172813e-14 -1.227935568e-14)
(-0 4.709378925e-15 -2.702916931e-15)
(-0 3.488871453e-15 -1.873176375e-15)
(-0 2.828935588e-15 -1.426604911e-15)
(-0 1.313233778e-15 -6.242693837e-16)
(-0 7.977103443e-17 -3.586076293e-17)
(-0 2.940061488e-17 -1.253511355e-17)
(-0 3.488312189e-17 -1.414219812e-17)
(-0 1.28870816e-17 -4.979820122e-18)
(-0 3.990672348e-18 -1.472991878e-18)
(-0 9.240013372e-19 -3.264307177e-19)
(-0 2.041378985e-19 -6.91465571e-20)
(-0 5.307936933e-20 -1.726970607e-20)
(-0 1.724163471e-20 -5.386138996e-21)
(-0 4.195480836e-21 -1.255000475e-21)
(-0 6.144802493e-22 -1.683449347e-22)
(-0 1.781114552e-22 -3.302263667e-23)
(-0 2.417824282e-23 2.674091372e-24)
(-0 5.050120492e-24 1.530339543e-25)
(-0 -1.285913537e-25 -3.343375197e-25)
(-0 0 -0)
(-0 0 -0)
(-0 0 0)
(-0 -0 -0)
(-0 -0 0)
(-0 -0 -0)
(-0 -0 -0)
(-0 -0 -0)
(-0 0 0)
(-0 0 0)
(-0 -2.396210963e-34 -3.084342897e-33)
(-0 -1.253362614e-13 -4.605502153e-13)
(-0 -8.258945867e-13 -1.719591234e-12)
(-0 -2.212064801e-13 -6.437284644e-13)
(-0 2.663994821e-13 -9.03765249e-13)
(-0 1.064309526e-12 -9.319287275e-13)
(-0 0.0001261975039 -8.025970828e-05)
(-0 6.858175124e-05 -624.051328)
(-0 1.263448734e-05 -589.1582793)
(-0 1.215832625e-07 -3.720171016e-07)
(-0 7.475668655e-12 -1.614378999e-11)
(-0 2.465893634e-12 -4.136959495e-12)
(-0 2.220381079e-12 -3.053964464e-12)
(-0 3.421890142e-12 -3.993655835e-12)
(-0 1.268859877e-12 -1.286918506e-12)
(-0 1.570282393e-12 -1.408542984e-12)
(-0 1.055321458e-13 -8.485672856e-14)
(-0 3.152046563e-13 -2.296428851e-13)
(-0 1.333056113e-13 -8.876865523e-14)
(-0 2.026842338e-14 -1.242627002e-14)
(-0 4.870656971e-14 -2.766272556e-14)
(-0 1.022006691e-14 -5.405661257e-15)
(-0 1.986028269e-14 -9.828099768e-15)
(-0 7.068817953e-15 -3.286079651e-15)
(-0 9.424765246e-16 -4.13053751e-16)
(-0 7.955570595e-16 -3.297631866e-16)
(-0 2.858247096e-16 -1.123760849e-16)
(-0 9.016968413e-17 -3.37136302e-17)
(-0 2.46550465e-17 -8.787104981e-18)
(-0 6.476857982e-18 -2.205134021e-18)
(-0 1.004843802e-18 -3.274596014e-19)
(-0 2.551499658e-19 -7.973514379e-20)
(-0 9.730564457e-20 -2.920780703e-20)
(-0 1.299777074e-20 -3.748218505e-21)
(-0 4.221198411e-21 -1.17287062e-21)
(-0 6.461030537e-22 -1.711276912e-22)
(-0 5.265253865e-23 -1.32449857e-23)
(-0 2.201871695e-23 -5.613837184e-24)
(-0 1.624917699e-24 -7.284113824e-25)
(-0 -0 -0)
(-0 0 -0)
(-0 0 0)
(-0 0 -0)
(-0 -0 -0)
(-0 -0 0)
(-0 -0 0)
(-0 -0 0)
(-0 -0 -0)
(-0 0 -0)
(-0 0 0)
(-0 -1.293193236e-24 -1.67830093e-23)
(-0 -4.658581694e-24 -1.705868762e-23)
(-0 -3.933870519e-13 -7.263935128e-13)
(-0 -4.05660591e-13 -6.233012127e-13)
(-0 -2.009944793e-13 -1.620519127e-12)
(-0 1.254703493e-12 -1.681212567e-12)
(-0 6.162600235e-06 -3.198933629e-06)
(-0 0.0001459499826 -1119.90669)
(-0 2.085230123e-05 -1055.24479)
(-0 5.219789127e-09 -1.461602275e-08)
(-0 4.219539905e-12 -8.293221935e-12)
(-0 5.400462948e-12 -8.243229528e-12)
(-0 5.071155399e-12 -6.351528033e-12)
(-0 3.648247946e-12 -3.881258558e-12)
(-0 2.556773092e-12 -2.366037641e-12)
(-0 5.022675193e-13 -4.114010063e-13)
(-0 5.836589676e-13 -4.288301491e-13)
(-0 7.232464572e-13 -4.81735133e-13)
(-0 2.05084695e-13 -1.249116033e-13)
(-0 2.560175625e-13 -1.436194228e-13)
(-0 1.98780536e-13 -1.033337161e-13)
(-0 9.05470122e-14 -4.384771539e-14)
(-0 1.507917285e-14 -6.833435372e-15)
(-0 1.30790337e-14 -5.56890514e-15)
(-0 6.203901937e-15 -2.490791856e-15)
(-0 1.343358189e-15 -5.101793684e-16)
(-0 2.106976844e-16 -7.590835603e-17)
(-0 3.976645312e-17 -1.362593068e-17)
(-0 7.362334804e-18 -2.404931161e-18)
(-0 1.467587617e-18 -4.579910547e-19)
(-0 1.529344205e-19 -4.568529169e-20)
(-0 2.075276161e-19 -5.94484856e-20)
(-0 1.03285088e-19 -2.841680209e-20)
(-0 1.736076808e-20 -4.594349279e-21)
(-0 7.051439941e-21 -1.799880485e-21)
(-0 1.022215567e-21 -2.559402012e-22)
(-0 4.77010635e-22 -1.219009071e-22)
(-0 8.888649498e-23 -2.799037092e-23)
(-0 1.391508443e-23 -3.958601606e-24)
(-0 6.227993175e-26 3.113996587e-26)
(-0 0 -0)
(-0 0 0)
(-0 0 -0)
(-0 -0 -0)
(-0 -0 0)
(-0 -0 -0)
(-0 -0 0)
(-0 -0 -0)
(-0 0 -0)
(-0 0 -0)
(-0 -2.891204126e-24 -3.68339978e-23)
(-0 -7.505396726e-20 -2.688236896e-19)
(-0 -3.162817071e-13 -5.467403924e-13)
(-0 -7.286724028e-13 -8.340699354e-13)
(-0 -3.729708166e-13 -6.117014083e-13)
(-0 1.338446527e-12 -4.60249258e-12)
(-0 7.020400358e-06 -4.858790766e-06)
(-0 0.000236468577 -1945.119988)
(-0 3.60410094e-05 -1823.181766)
(-0 8.885531664e-09 -2.182848735e-08)
(-0 9.723007522e-12 -1.697541e-11)
(-0 9.432923215e-12 -1.288255502e-11)
(-0 5.597376869e-12 -6.301442704e-12)
(-0 6.10468008e-12 -5.855695416e-12)
(-0 1.306757713e-12 -1.092675729e-12)
(-0 1.286822998e-12 -9.538783889e-13)
(-0 2.657950903e-12 -1.769367043e-12)
(-0 5.894574329e-13 -3.560395943e-13)
(-0 1.293745629e-12 -7.150475625e-13)
(-0 8.08906811e-13 -4.119917504e-13)
(-0 3.361300511e-14 -1.587106247e-14)
(-0 1.313536197e-13 -5.779554809e-14)
(-0 4.116618969e-14 -1.695524532e-14)
(-0 5.033000084e-15 -1.948159493e-15)
(-0 2.726069574e-15 -9.951717751e-16)
(-0 1.785257919e-15 -6.165846902e-16)
(-0 5.221729318e-16 -1.711064793e-16)
(-0 1.905421841e-16 -5.939033676e-17)
(-0 6.514429287e-17 -1.935906504e-17)
(-0 2.000815331e-17 -5.680945978e-18)
(-0 3.492007874e-18 -9.491614348e-19)
(-0 1.361296943e-18 -3.548498144e-19)
(-0 2.953774273e-19 -7.396300096e-20)
(-0 7.685271935e-20 -1.852478212e-20)
(-0 2.005232835e-20 -4.660424093e-21)
(-0 4.523348291e-21 -1.02593724e-21)
(-0 1.033467796e-21 -2.390154675e-22)
(-0 1.874210283e-22 -4.707482249e-23)
(-0 4.916560943e-23 -1.569115195e-23)
(-0 2.346945039e-24 4.978368265e-25)
(-0 0 -0)
(-0 0 0)
(-0 0 -0)
(-0 -0 -0)
(-0 -0 0)
(-0 -0 0)
(-0 -0 0)
(-0 -0 -0)
(-0 0 -0)
(-0 0 -0)
(-0 -2.349978532e-20 -2.879606206e-19)
(-0 -1.125382995e-19 -3.84921217e-19)
(-0 -9.724909164e-15 -1.625951751e-14)
(-0 -7.535034298e-13 -7.667281199e-13)
(-0 -6.034203126e-13 -5.461704784e-13)
(-0 -3.107090377e-13 -1.156947751e-12)
(-0 1.082088209e-06 -1.130096078e-06)
(-0 0.0002370878643 -3222.099304)
(-0 6.543986726e-05 -3014.594136)
(-0 1.244888068e-07 -2.603538472e-07)
(-0 2.377841025e-11 -3.617256541e-11)
(-0 1.673651591e-11 -2.015241146e-11)
(-0 1.251586424e-11 -1.250902918e-11)
(-0 1.977046567e-11 -1.690994747e-11)
(-0 6.113464862e-12 -4.571568635e-12)
(-0 1.227866654e-11 -8.156261695e-12)
(-0 3.765683549e-12 -2.249648599e-12)
(-0 3.593416591e-12 -1.949935262e-12)
(-0 5.536447363e-13 -2.7512854e-13)
(-0 1.182133192e-12 -5.416828849e-13)
(-0 2.278522346e-13 -9.683939271e-14)
(-0 1.243833116e-13 -4.928135774e-14)
(-0 5.414952834e-14 -2.008916528e-14)
(-0 1.712424769e-14 -5.972053589e-15)
(-0 8.340701713e-15 -2.743910643e-15)
(-0 3.202575571e-15 -9.969514487e-16)
(-0 7.299015061e-16 -2.156075028e-16)
(-0 2.448128566e-16 -6.879571041e-17)
(-0 7.100080099e-17 -1.902481783e-17)
(-0 2.572047306e-17 -6.585413466e-18)
(-0 7.27527881e-18 -1.783365078e-18)
(-0 1.616109532e-18 -3.799516461e-19)
(-0 3.886336742e-19 -8.777467176e-20)
(-0 1.644464407e-19 -3.57543393e-20)
(-0 3.84022433e-20 -8.056592605e-21)
(-0 6.997053696e-21 -1.4209506e-21)
(-0 1.742721341e-21 -3.599387061e-22)
(-0 3.372091768e-22 -7.108733997e-23)
(-0 7.115488505e-23 -1.919190284e-23)
(-0 1.092333297e-23 -5.945611617e-24)
(-0 1.30441857e-24 1.236948644e-24)
(-0 0 0)
(-0 0 0)
(-0 -0 -0)
(-0 -0 0)
(-0 -0 0)
(-0 -0 0)
(-0 -0 0)
(-0 0 0)
(-0 0 0)
(-0 -1.935084767e-20 -2.19120008e-19)
(-0 -2.45772407e-19 -7.726976522e-19)
(-0 -1.59549288e-19 -2.479647257e-19)
(-0 -1.719109042e-13 -1.648555685e-13)
(-0 -7.094561225e-13 -5.048988879e-13)
(-0 -3.243834756e-13 -3.337908144e-13)
(-0 2.076733648e-14 -5.052680272e-14)
(-0 0.00020884585 -5024.255439)
(-0 9.004589735e-05 -4731.408723)
(-0 1.103730559e-06 -1.924369411e-06)
(-0 5.677712864e-12 -7.403440891e-12)
(-0 3.007415459e-11 -3.148181912e-11)
(-0 2.689717432e-11 -2.356230315e-11)
(-0 1.38738727e-11 -1.045404567e-11)
(-0 2.764558104e-11 -1.827354727e-11)
(-0 2.18964201e-11 -1.28864133e-11)
(-0 5.461020061e-12 -2.895151284e-12)
(-0 6.231306204e-12 -3.004227549e-12)
(-0 1.990599632e-12 -8.796548916e-13)
(-0 1.307205005e-12 -5.330121571e-13)
(-0 6.385388705e-14 -2.416160509e-14)
(-0 3.693690627e-14 -1.303460024e-14)
(-0 2.675255781e-14 -8.842814426e-15)
(-0 1.868736713e-14 -5.808081945e-15)
(-0 1.112853496e-14 -3.263409795e-15)
(-0 2.750846532e-15 -7.634577802e-16)
(-0 7.912449573e-16 -2.084105856e-16)
(-0 1.820808277e-16 -4.563054255e-17)
(-0 5.095542481e-17 -1.2177528e-17)
(-0 1.555454477e-17 -3.552330306e-18)
(-0 2.554939851e-18 -5.586757811e-19)
(-0 1.307088949e-18 -2.741395598e-19)
(-0 7.323215556e-19 -1.475616974e-19)
(-0 2.247212383e-19 -4.357882711e-20)
(-0 4.326211245e-20 -8.096820197e-21)
(-0 9.815343067e-21 -1.779002635e-21)
(-0 1.825620116e-21 -3.275432836e-22)
(-0 7.287780573e-22 -1.274544584e-22)
(-0 1.260968304e-22 -2.559160765e-23)
(-0 3.225622718e-23 -1.08634962e-23)
(-0 8.87455506e-24 4.364535275e-24)
(-0 0 -0)
(-0 -0 0)
(-0 -0 0)
(-0 -0 0)
(-0 -0 0)
(-0 -0 -0)
(-0 -0 -0)
(-0 0 0)
(-0 0 0)
(-0 -9.849694542e-24 -9.801376635e-23)
(-0 -2.060747293e-19 -5.71663081e-19)
(-0 -6.026438469e-19 -8.333449312e-19)
(-0 -7.87908654e-19 -7.007676409e-19)
(-0 -3.741536813e-13 -2.483057981e-13)
(-0 -4.209238506e-14 -2.651070626e-14)
(-0 -1.279301206e-15 -4.959993478e-15)
(-0 0.0001090979524 -7300.588377)
(-0 -4.620237905e-05 -6989.744159)
(-0 2.313816266e-05 -3.365665613e-05)
(-0 4.642338682e-11 -5.109396446e-11)
(-0 2.245560244e-11 -2.013654743e-11)
(-0 3.427216824e-11 -2.594067241e-11)
(-0 2.168936292e-11 -1.41969021e-11)
(-0 3.93029867e-11 -2.264711741e-11)
(-0 9.918605672e-12 -5.100856425e-12)
(-0 7.198064647e-12 -3.340262152e-12)
(-0 6.726867993e-12 -2.842260165e-12)
(-0 2.983404618e-12 -1.156456487e-12)
(-0 1.469268441e-12 -5.258702868e-13)
(-0 6.08925748e-13 -2.023549262e-13)
(-0 2.693466598e-13 -8.350973939e-14)
(-0 5.193594506e-14 -1.508767419e-14)
(-0 6.52262151e-15 -1.782169899e-15)
(-0 6.626957115e-15 -1.708765271e-15)
(-0 1.329281889e-15 -3.244490709e-16)
(-0 8.050048191e-16 -1.865011773e-16)
(-0 4.708436147e-16 -1.037996511e-16)
(-0 2.209065613e-16 -4.644626748e-17)
(-0 6.54082588e-17 -1.314320332e-17)
(-0 1.079641627e-17 -2.077319821e-18)
(-0 4.281734212e-18 -7.902376545e-19)
(-0 8.619683672e-19 -1.528510817e-19)
(-0 6.757768299e-20 -1.153059212e-20)
(-0 4.817766536e-20 -7.925467315e-21)
(-0 1.633972396e-20 -2.603077607e-21)
(-0 3.986986468e-21 -6.112213e-22)
(-0 8.840472414e-22 -1.261829926e-22)
(-0 1.259677345e-22 -1.297950237e-23)
(-0 4.716090288e-23 2.841018246e-24)
(-0 1.127937537e-23 8.459531525e-25)
(-0 5.881993554e-26 -2.075997725e-26)
(-0 0 -0)
(-0 -0 0)
(-0 -0 -0)
(-0 -0 0)
(-0 -0 0)
(-0 -0 -0)
(-0 0 -0)
(-0 0 -0)
(-0 -1.534895836e-49 -1.279933628e-48)
(-0 -8.700000733e-23 -2.034178514e-22)
(-0 -5.193764025e-19 -6.093205584e-19)
(-0 -8.338613521e-20 -6.398995015e-20)
(-0 -5.216090457e-21 -3.128507422e-21)