/*--------------------------------*- C++ -*----------------------------------*\
  =========                 |
  \\      /  F ield         | OpenFOAM: The Open Source CFD Toolbox
   \\    /   O peration     | Website:  https://openfoam.org
    \\  /    A nd           | Version:  6
     \\/     M anipulation  |
\*---------------------------------------------------------------------------*/
FoamFile
{
    version     2.0;
    format      ascii;
    class       volScalarField;
    location    "0.1";
    object      Num_divU;
}
// * * * * * * * * * * * * * * * * * * * * * * * * * * * * * * * * * * * * * //

dimensions      [0 0 -1 0 0 0 0];

internalField   nonuniform List<scalar> 
2500
(
1.410273094e-07
-3.574240534e-07
3.692352734e-08
2.530230148e-07
2.133085973e-07
2.950656643e-08
-4.132065864e-08
5.397043304e-08
6.652456264e-08
8.108320035e-22
-1.935699532e-17
-4.351054707e-17
-6.619238532e-17
-8.825267253e-17
-1.100249001e-16
-1.315570711e-16
-1.52826416e-16
-1.737970837e-16
-1.944307503e-16
-2.146892871e-16
-2.345370932e-16
-2.539411544e-16
-2.728698837e-16
-2.912932381e-16
-3.091831254e-16
-3.265138877e-16
-3.432621515e-16
-3.594070339e-16
-3.749299051e-16
-3.898144134e-16
-4.040465071e-16
-4.176142003e-16
-4.30507467e-16
-4.427180514e-16
-4.542393584e-16
-4.650662564e-16
-4.751949274e-16
-4.846228493e-16
-4.933485016e-16
-5.013714142e-16
-5.086918549e-16
-5.15310804e-16
-5.21229759e-16
-5.264506729e-16
-5.309758106e-16
-5.348076359e-16
-5.379488711e-16
-5.404022786e-16
-5.421701059e-16
-5.432509623e-16
1.199606735e-07
-7.549392533e-08
9.252617155e-08
-3.555565782e-08
-1.128739357e-08
1.450267506e-07
-7.316203425e-08
-4.574231289e-07
-1.299876784e-07
-3.863151225e-17
-8.094357846e-17
-1.226050546e-16
-1.622450317e-16
-2.011561982e-16
-2.395974691e-16
-2.775577605e-16
-3.14975084e-16
-3.517816904e-16
-3.879120933e-16
-4.233031035e-16
-4.578948954e-16
-4.916312645e-16
-5.244595449e-16
-5.563304075e-16
-5.871982811e-16
-6.170217064e-16
-6.457636401e-16
-6.733911552e-16
-6.998755545e-16
-7.251919824e-16
-7.493192788e-16
-7.722397767e-16
-7.939388755e-16
-8.144048556e-16
-8.336286583e-16
-8.516036387e-16
-8.683252964e-16
-8.837910839e-16
-8.980000807e-16
-9.10952829e-16
-9.226511185e-16
-9.330976768e-16
-9.422959521e-16
-9.502502302e-16
-9.569654407e-16
-9.624478415e-16
-9.667063808e-16
-9.697576057e-16
-9.716414863e-16
-4.289089351e-16
1.423138509e-07
-2.192065387e-07
-5.351399018e-09
2.11094792e-07
6.866777099e-08
2.147150054e-07
3.344516279e-07
7.808514974e-08
-6.156732029e-08
-3.164486028e-17
-6.743697775e-17
-1.034435386e-16
-1.378943106e-16
-1.718015735e-16
-2.05328873e-16
-2.384483477e-16
-2.711020598e-16
-3.032296232e-16
-3.347734104e-16
-3.65677855e-16
-3.958905049e-16
-4.25362247e-16
-4.540469607e-16
-4.819011952e-16
-5.088846742e-16
-5.349609915e-16
-5.600975321e-16
-5.842654832e-16
-6.074396986e-16
-6.29598278e-16
-6.507225212e-16
-6.707966628e-16
-6.898077388e-16
-7.077453217e-16
-7.246013175e-16
-7.403697434e-16
-7.550465448e-16
-7.686294236e-16
-7.811174869e-16
-7.92511072e-16
-8.028116559e-16
-8.12021437e-16
-8.201432945e-16
-8.271805464e-16
-8.331367617e-16
-8.380155953e-16
-8.418200423e-16
-8.445497895e-16
-8.461888173e-16
-4.17865408e-16
1.461712699e-07
1.288280497e-07
-3.104905147e-07
-1.400472842e-07
-2.108147224e-07
-1.595266408e-07
6.683232757e-08
-4.91414632e-08
6.12508114e-08
-3.115393532e-17
-6.622803922e-17
-1.016496896e-16
-1.355941285e-16
-1.690238992e-16
-2.020844635e-16
-2.347441455e-16
-2.669451877e-16
-2.98627854e-16
-3.297353776e-16
-3.602130322e-16
-3.900088056e-16
-4.190739927e-16
-4.473630317e-16
-4.748331927e-16
-5.014449241e-16
-5.271622491e-16
-5.519531541e-16
-5.757892241e-16
-5.986457509e-16
-6.205011317e-16
-6.413368939e-16
-6.611374336e-16
-6.798898955e-16
-6.975840182e-16
-7.142117225e-16
-7.2976713e-16
-7.442463177e-16
-7.576469034e-16
-7.699680481e-16
-7.812101061e-16
-7.913744419e-16
-8.004631383e-16
-8.084788194e-16
-8.154243967e-16
-8.213028297e-16
-8.261165933e-16
-8.298669657e-16
-8.325524234e-16
-8.341662706e-16
-4.169032234e-16
-8.811532284e-08
3.288324176e-07
-2.047885968e-07
-3.107037435e-07
-2.628102618e-07
-2.354129456e-07
-3.713551535e-08
-1.189958499e-07
8.016556955e-08
-3.113512376e-17
-6.614868627e-17
-1.01525068e-16
-1.354345701e-16
-1.68831596e-16
-2.01859092e-16
-2.344855989e-16
-2.666536921e-16
-2.983038602e-16
-3.293792093e-16
-3.598250937e-16
-3.895894236e-16
-4.186233699e-16
-4.468813831e-16
-4.74320909e-16
-5.009026612e-16
-5.26590758e-16
-5.513533368e-16
-5.751620937e-16
-5.979922764e-16
-6.198223536e-16
-6.406338792e-16
-6.604112199e-16
-6.791415511e-16
-6.968144813e-16
-7.134220737e-16
-7.28958434e-16
-7.434196133e-16
-7.568033212e-16
-7.691086354e-16
-7.803359691e-16
-7.904865507e-16
-7.99562408e-16
-8.07566005e-16
-8.145000466e-16
-8.20367025e-16
-8.251690758e-16
-8.28907181e-16
-8.31580842e-16
-8.331879247e-16
-4.168980276e-16
-4.000681091e-07
3.136117429e-09
-2.098281487e-09
-2.436668209e-07
-2.029375504e-07
-2.101103207e-07
-7.81847611e-08
-3.475542664e-08
-1.785803341e-08
-3.114647028e-17
-6.617193364e-17
-1.015542317e-16
-1.354734996e-16
-1.688806514e-16
-2.019165301e-16
-2.345508474e-16
-2.667260817e-16
-2.98383013e-16
-3.294644407e-16
-3.599158244e-16
-3.896851082e-16
-4.187233595e-16
-4.469849925e-16
-4.744275248e-16
-5.010117794e-16
-5.267021722e-16
-5.514667402e-16
-5.752772696e-16
-5.98108972e-16
-6.199403434e-16
-6.407528804e-16
-6.605309782e-16
-6.792617341e-16
-6.969347825e-16
-7.135421642e-16
-7.290779803e-16
-7.435383064e-16
-7.56920831e-16
-7.692247408e-16
-7.804502774e-16
-7.905987254e-16
-7.996720428e-16
-8.076726011e-16
-8.14602866e-16
-8.204653141e-16
-8.25261873e-16
-8.289938571e-16
-8.316615088e-16
-8.332645739e-16
-4.169884715e-16
-4.229912599e-07
-3.971255519e-07
-7.045152422e-08
-1.192469086e-07
-1.250891933e-07
-9.787747866e-08
-9.404830451e-08
1.149246644e-07
-1.061416563e-07
-3.115694395e-17
-6.620481615e-17
-1.015968532e-16
-1.355288031e-16
-1.689508506e-16
-2.019996001e-16
-2.346458337e-16
-2.668320627e-16
-2.984996589e-16
-3.295909623e-16
-3.600514087e-16
-3.898291182e-16
-4.188751848e-16
-4.471439101e-16
-4.745929336e-16
-5.011831787e-16
-5.268791139e-16
-5.516489012e-16
-5.754642911e-16
-5.983005327e-16
-6.201360407e-16
-6.409523362e-16
-6.607337493e-16
-6.794673643e-16
-6.971427722e-16
-7.137520891e-16
-7.292893364e-16
-7.437506257e-16
-7.571337044e-16
-7.694376556e-16
-7.806628288e-16
-7.908104345e-16
-7.998823636e-16
-8.078809439e-16
-8.148086175e-16
-8.206677705e-16
-8.254605018e-16
-8.291882776e-16
-8.318519961e-16
-8.33452137e-16
-4.170922974e-16
-1.023086909e-07
-4.411493908e-07
-2.768705859e-07
-1.235085431e-07
-7.357716403e-08
-4.654048998e-08
-3.232068585e-08
1.242870981e-07
-7.395945271e-08
-3.116736887e-17
-6.623392428e-17
-1.016380615e-16
-1.355819646e-16
-1.690204125e-16
-2.02083964e-16
-2.347429249e-16
-2.669404696e-16
-2.986188629e-16
-3.297204874e-16
-3.601904628e-16
-3.899770415e-16
-4.190313401e-16
-4.473077049e-16
-4.747638031e-16
-5.01360637e-16
-5.27062718e-16
-5.518383148e-16
-5.756591814e-16
-5.985005457e-16
-6.203407671e-16
-6.411613662e-16
-6.609466039e-16
-6.796835467e-16
-6.973618789e-16
-7.139734919e-16
-7.295125863e-16
-7.439752815e-16
-7.573592033e-16
-7.696635817e-16
-7.808886803e-16
-7.910357503e-16
-8.001066532e-16
-8.081036739e-16
-8.150292598e-16
-8.208859024e-16
-8.256756812e-16
-8.294003396e-16
-8.320611754e-16
-8.336590141e-16
-4.172004524e-16
2.074831147e-07
-1.820969187e-07
-3.602663838e-07
-1.340131854e-07
-3.580000928e-08
-7.995031493e-08
9.351701904e-08
5.913002956e-09
4.118362183e-08
-3.117914841e-17
-6.62546903e-17
-1.016748187e-16
-1.356288338e-16
-1.690844253e-16
-2.021653424e-16
-2.348384228e-16
-2.670478234e-16
-2.987368914e-16
-3.298486376e-16
-3.603283194e-16
-3.901239138e-16
-4.191866617e-16
-4.47470889e-16
-4.749342552e-16
-5.015378781e-16
-5.272464348e-16
-5.520280915e-16
-5.758547089e-16
-5.987014411e-16
-6.205467072e-16
-6.413718646e-16
-6.611612485e-16
-6.799018141e-16
-6.975832268e-16
-7.141974472e-16
-7.297386795e-16
-7.442029028e-16
-7.575879676e-16
-7.698929962e-16
-7.811182585e-16
-7.9126504e-16
-8.003351797e-16
-8.083310063e-16
-8.152549938e-16
-8.211096264e-16
-8.258971138e-16
-8.296194309e-16
-8.322780426e-16
-8.338739444e-16
-4.17310844e-16
3.301220152e-07
8.255147627e-08
-2.544860675e-07
-3.330762218e-08
1.824043541e-08
5.114365818e-09
1.420989218e-07
3.465966469e-08
1.074792995e-07
-3.119054771e-17
-6.626922878e-17
-1.017094346e-16
-1.356700734e-16
-1.691407011e-16
-2.022406417e-16
-2.349296548e-16
-2.671523652e-16
-2.988525801e-16
-3.299744475e-16
-3.604636664e-16
-3.902684129e-16
-4.193396935e-16
-4.476318496e-16
-4.751026754e-16
-5.017132918e-16
-5.274283904e-16
-5.522163201e-16
-5.760488627e-16
-5.989011517e-16
-6.207515981e-16
-6.415815234e-16
-6.613752245e-16
-6.801196297e-16
-6.978043702e-16
-7.144214068e-16
-7.299649016e-16
-7.444309638e-16
-7.578173389e-16
-7.701231823e-16
-7.813488505e-16
-7.914955674e-16
-8.005652661e-16
-8.085602154e-16
-8.154829487e-16
-8.213360028e-16
-8.261217458e-16
-8.298421577e-16
-8.324989203e-16
-8.340932098e-16
-4.174218775e-16
1.519946788e-07
1.376062943e-07
-4.697926335e-08
8.088190411e-08
2.296176177e-07
1.636973889e-07
1.667556594e-07
2.83232702e-07
9.532743114e-08
-3.1199116e-17
-6.628292146e-17
-1.01746947e-16
-1.357116108e-16
-1.691919038e-16
-2.02309158e-16
-2.350147667e-16
-2.672520952e-16
-2.989644914e-16
-3.300968083e-16
-3.605956514e-16
-3.904094836e-16
-4.19489299e-16
-4.477894413e-16
-4.752677372e-16
-5.018854065e-16
-5.276071771e-16
-5.524014153e-16
-5.762399193e-16
-5.99097898e-16
-6.209536329e-16
-6.417884679e-16
-6.61586579e-16
-6.803349813e-16
-6.980232048e-16
-7.146432117e-16
-7.301891535e-16
-7.446571853e-16
-7.580450717e-16
-7.703519341e-16
-7.815782103e-16
-7.917251211e-16
-8.007945703e-16
-8.087889253e-16
-8.157107375e-16
-8.215625728e-16
-8.263468884e-16
-8.300657795e-16
-8.327209983e-16
-8.343138233e-16
-4.175321345e-16
-8.561857007e-08
6.24035279e-08
8.507664614e-08
2.705078207e-07
3.649454688e-07
2.868857211e-07
3.658564704e-07
3.62415399e-07
9.917551724e-08
-3.120713386e-17
-6.629948409e-17
-1.01787363e-16
-1.357602178e-16
-1.692446173e-16
-2.023737132e-16
-2.350940244e-16
-2.67345973e-16
-2.990711779e-16
-3.302144449e-16
-3.60723063e-16
-3.905459393e-16
-4.196342002e-16
-4.479422559e-16
-4.754279933e-16
-5.020526951e-16
-5.277811518e-16
-5.525817368e-16
-5.764262662e-16
-5.99289873e-16
-6.211509169e-16
-6.41990679e-16
-6.617933354e-16
-6.805457733e-16
-6.982375451e-16
-7.148606418e-16
-7.304091995e-16
-7.448793092e-16
-7.58268801e-16
-7.705768999e-16
-7.818039365e-16
-7.919512119e-16
-8.010206532e-16
-8.09014678e-16
-8.159358327e-16
-8.217867475e-16
-8.265699023e-16
-8.30287515e-16
-8.329413509e-16
-8.345328197e-16
-4.176401497e-16
-1.336151966e-07
4.398624816e-09
1.868652358e-07
3.599817418e-07
3.122546152e-07
5.294613988e-07
4.7950355e-07
-1.571918891e-08
2.066340937e-07
-3.122043726e-17
-6.631838222e-17
-1.018201757e-16
-1.358139206e-16
-1.693022771e-16
-2.024376037e-16
-2.351692614e-16
-2.674342737e-16
-2.991718703e-16
-3.30326196e-16
-3.608447442e-16
-3.906765796e-16
-4.197731055e-16
-4.48088866e-16
-4.755818937e-16
-5.022135475e-16
-5.279486386e-16
-5.527554856e-16
-5.766059585e-16
-5.994751826e-16
-6.213415002e-16
-6.421861718e-16
-6.619932745e-16
-6.807497714e-16
-6.984451633e-16
-7.150713982e-16
-7.306226153e-16
-7.450949346e-16
-7.584861936e-16
-7.707956206e-16
-7.820235522e-16
-7.921713727e-16
-8.012410065e-16
-8.092348588e-16
-8.161555423e-16
-8.220057557e-16
-8.267879866e-16
-8.305044961e-16
-8.331571265e-16
-8.347472896e-16
-4.177444276e-16
-5.699963738e-10
7.756733396e-08
2.348443192e-07
3.099541341e-07
3.939921918e-07
4.530359762e-07
3.133981465e-07
-6.748890333e-07
3.269821027e-07
-3.124041092e-17
-6.634403453e-17
-1.018395963e-16
-1.358645827e-16
-1.693624054e-16
-2.025016751e-16
-2.352417174e-16
-2.675176324e-16
-2.992664069e-16
-3.304313125e-16
-3.609595392e-16
-3.908001802e-16
-4.199046861e-16
-4.482278583e-16
-4.757278673e-16
-5.023662718e-16
-5.28107789e-16
-5.529208179e-16
-5.767771146e-16
-5.996518429e-16
-6.215232938e-16
-6.42372727e-16
-6.621842649e-16
-6.809447844e-16
-6.986437507e-16
-7.152731066e-16
-7.308270197e-16
-7.453016045e-16
-7.586946809e-16
-7.710054939e-16
-7.822345198e-16
-7.923829571e-16
-8.014529362e-16
-8.09446776e-16
-8.163672061e-16
-8.222168249e-16
-8.26998305e-16
-8.307138406e-16
-8.333653558e-16
-8.349542795e-16
-4.17843547e-16
1.432278396e-07
1.944805362e-07
2.481304942e-07
3.865608701e-07
3.244734515e-07
-9.854680564e-08
2.558462282e-07
-1.100634023e-06
2.87466399e-07
-3.125630556e-17
-6.637843712e-17
-1.018550136e-16
-1.359084806e-16
-1.694202861e-16
-2.025644333e-16
-2.353113163e-16
-2.675961956e-16
-2.993546785e-16
-3.305291679e-16
-3.610665256e-16
-3.909155547e-16
-4.200276442e-16
-4.48357789e-16
-4.75864458e-16
-5.02509214e-16
-5.282569119e-16
-5.530758669e-16
-5.769377843e-16
-5.998178006e-16
-6.216942372e-16
-6.425482766e-16
-6.623640921e-16
-6.811284803e-16
-6.988309448e-16
-7.154633867e-16
-7.310199647e-16
-7.454968036e-16
-7.58891739e-16
-7.712040562e-16
-7.824341258e-16
-7.925833654e-16
-8.016537406e-16
-8.096477345e-16
-8.165679584e-16
-8.224172182e-16
-8.271980099e-16
-8.309127046e-16
-8.335632035e-16
-8.351509483e-16
-4.179360142e-16
1.939140209e-07
2.355423218e-07
2.575057593e-07
4.02611161e-07
6.20796752e-08
-3.397612198e-07
8.704219386e-08
-9.332747979e-07
1.264759623e-07
-3.125849575e-17
-6.640645782e-17
-1.018737087e-16
-1.35943861e-16
-1.694703938e-16
-2.02622221e-16
-2.353762002e-16
-2.676690112e-16
-2.994360791e-16
-3.306191828e-16
-3.611647567e-16
-3.910214503e-16
-4.201406156e-16
-4.484772966e-16
-4.759900915e-16
-5.026407685e-16
-5.283942607e-16
-5.532187509e-16
-5.77086009e-16
-5.999710896e-16
-6.218522024e-16
-6.427106541e-16
-6.625305214e-16
-6.812986023e-16
-6.990044248e-16
-7.156398316e-16
-7.311989971e-16
-7.456780487e-16
-7.590748393e-16
-7.713886012e-16
-7.826198682e-16
-7.927699087e-16
-8.018407868e-16
-8.098349576e-16
-8.16755162e-16
-8.226040512e-16
-8.273843235e-16
-8.310982643e-16
-8.337477884e-16
-8.353343737e-16
-4.180205034e-16
1.60160962e-07
1.438186648e-07
2.142614807e-07
2.934681487e-07
4.697623035e-08
-1.168319318e-07
-1.617796166e-07
-6.44796846e-07
-5.347296583e-08
-3.125342161e-17
-6.642543341e-17
-1.019052083e-16
-1.359767792e-16
-1.695123784e-16
-2.026728241e-16
-2.354343746e-16
-2.677346654e-16
-2.995095231e-16
-3.307003479e-16
-3.612532104e-16
-3.911167335e-16
-4.202422749e-16
-4.485848936e-16
-4.761032965e-16
-5.027593879e-16
-5.285181242e-16
-5.533477239e-16
-5.772199212e-16
-6.00109616e-16
-6.219951792e-16
-6.428577278e-16
-6.626813301e-16
-6.81452925e-16
-6.991618491e-16
-7.158000763e-16
-7.313617408e-16
-7.458428792e-16
-7.592414651e-16
-7.715567135e-16
-7.827890826e-16
-7.929399446e-16
-8.02011377e-16
-8.100058274e-16
-8.169260171e-16
-8.227747061e-16
-8.275544795e-16
-8.312677142e-16
-8.33916342e-16
-8.355018794e-16
-4.180956565e-16
1.25804199e-07
1.356276352e-08
1.248730235e-07
1.396510646e-07
-1.843633936e-08
1.952769388e-07
-9.340854349e-08
3.51738887e-07
-2.054152928e-07
-3.124793319e-17
-6.642871702e-17
-1.019441424e-16
-1.360110092e-16
-1.695491615e-16
-2.027166175e-16
-2.354850527e-16
-2.677921137e-16
-2.995739316e-16
-3.307716478e-16
-3.613308449e-16
-3.91200233e-16
-4.203313085e-16
-4.486792203e-16
-4.762026408e-16
-5.028635126e-16
-5.286269062e-16
-5.534610643e-16
-5.773376384e-16
-6.002316292e-16
-6.221211179e-16
-6.429873827e-16
-6.628144864e-16
-6.815892159e-16
-6.993010572e-16
-7.159418623e-16
-7.315057796e-16
-7.459889536e-16
-7.593892222e-16
-7.717058386e-16
-7.829393171e-16
-7.930910397e-16
-8.021629985e-16
-8.101577565e-16
-8.170780046e-16
-8.229264585e-16
-8.277058431e-16
-8.314184515e-16
-8.340662543e-16
-8.356507418e-16
-4.181601933e-16
1.333651813e-07
-5.769400955e-08
1.338100207e-08
-5.777900235e-08
-1.851354058e-07
3.044410672e-07
2.422004594e-07
1.158447698e-06
-3.763369727e-07
-3.12555924e-17
-6.641962039e-17
-1.019723675e-16
-1.360387429e-16
-1.695790561e-16
-2.02752904e-16
-2.355276162e-16
-2.678405905e-16
-2.996284112e-16
-3.308319046e-16
-3.613965081e-16
-3.912707686e-16
-4.204065374e-16
-4.487589005e-16
-4.762866506e-16
-5.029516698e-16
-5.28719069e-16
-5.535571482e-16
-5.774375148e-16
-6.003351463e-16
-6.222281682e-16
-6.430977421e-16
-6.629278943e-16
-6.817054475e-16
-6.994198553e-16
-7.16063005e-16
-7.316289766e-16
-7.461139798e-16
-7.59515761e-16
-7.718337051e-16
-7.830682279e-16
-7.932206923e-16
-8.022931972e-16
-8.102882743e-16
-8.172085472e-16
-8.230569091e-16
-8.27835889e-16
-8.315479546e-16
-8.341949679e-16
-8.357785167e-16
-4.182129689e-16
1.475334525e-07
-5.230466936e-08
2.800533701e-08
-8.487486577e-08
-2.821079259e-07
3.327476013e-07
5.115882086e-07
1.12024813e-06
-4.471153384e-07
-3.127603359e-17
-6.64232789e-17
-1.019897024e-16
-1.360563101e-16
-1.696000839e-16
-2.027803626e-16
-2.355610987e-16
-2.67879465e-16
-2.996721012e-16
-3.308802122e-16
-3.614490566e-16
-3.913272655e-16
-4.204667084e-16
-4.488227661e-16
-4.763540194e-16
-5.030224873e-16
-5.287931444e-16
-5.53634399e-16
-5.775179093e-16
-6.004186187e-16
-6.223145633e-16
-6.431869137e-16
-6.630196707e-16
-6.81799684e-16
-6.995163033e-16
-7.161614494e-16
-7.31729266e-16
-7.462158225e-16
-7.596189916e-16
-7.719380989e-16
-7.83173519e-16
-7.933267278e-16
-8.023997554e-16
-8.103950894e-16
-8.173154676e-16
-8.231636659e-16
-8.279423602e-16
-8.316538788e-16
-8.343002095e-16
-8.358828269e-16
-4.182529613e-16
1.069460895e-07
-1.002080083e-07
1.068637965e-07
9.681974443e-08
-3.626686542e-07
1.778080561e-07
6.211312087e-07
1.154344515e-06
-4.033205727e-07
-3.12891728e-17
-6.643886105e-17
-1.019983487e-16
-1.360638545e-16
-1.696113411e-16
-2.027978789e-16
-2.355843704e-16
-2.67907622e-16
-2.997041389e-16
-3.309156063e-16
-3.614875361e-16
-3.913686367e-16
-4.20510875e-16
-4.488696091e-16
-4.764035819e-16
-5.030745942e-16
-5.288477935e-16
-5.5369146e-16
-5.77577365e-16
-6.004804242e-16
-6.223786851e-16
-6.432532644e-16
-6.630881356e-16
-6.81870092e-16
-6.995885491e-16
-7.162353897e-16
-7.318046979e-16
-7.462925962e-16
-7.596969355e-16
-7.720169969e-16
-7.832532563e-16
-7.934070838e-16
-8.024805369e-16
-8.104761337e-16
-8.173965926e-16
-8.232446999e-16
-8.280230997e-16
-8.317341247e-16
-8.343798307e-16
-8.359616424e-16
-4.18279137e-16
2.082785637e-08
-2.593154007e-07
1.108517721e-07
4.208403835e-07
-2.753982274e-07
-3.651574568e-07
4.978820327e-07
8.750607675e-07
-3.154096034e-07
-3.129213926e-17
-6.645445723e-17
-1.020011631e-16
-1.360653063e-16
-1.696146724e-16
-2.028055391e-16
-2.355967688e-16
-2.679241257e-16
-2.997235056e-16
-3.309371701e-16
-3.615110816e-16
-3.913939828e-16
-4.205379824e-16
-4.488985145e-16
-4.764342178e-16
-5.031069381e-16
-5.28881708e-16
-5.537270319e-16
-5.776145573e-16
-6.005192177e-16
-6.224191234e-16
-6.432952735e-16
-6.631317121e-16
-6.819151382e-16
-6.996349986e-16
-7.162830829e-16
-7.31853567e-16
-7.463425266e-16
-7.597478142e-16
-7.720686519e-16
-7.833055782e-16
-7.934599258e-16
-8.025337434e-16
-8.105295228e-16
-8.174500601e-16
-8.232980518e-16
-8.280761765e-16
-8.317868186e-16
-8.344319503e-16
-8.36013012e-16
-4.182907349e-16
-3.994381651e-08
-4.445657272e-07
-3.299219064e-08
6.302936815e-07
1.290634285e-07
-7.045566013e-07
2.289110216e-07
5.436958905e-07
-2.189312556e-07
-3.128975726e-17
-6.646067195e-17
-1.01998904e-16
-1.360648006e-16
-1.696133468e-16
-2.028048603e-16
-2.355985513e-16
-2.679283595e-16
-2.997294034e-16
-3.309441053e-16
-3.615187626e-16
-3.914024271e-16
-4.205472097e-16
-4.489085291e-16
-4.764449815e-16
-5.031184442e-16
-5.28893945e-16
-5.537399856e-16
-5.776282604e-16
-6.005337813e-16
-6.224345792e-16
-6.433116795e-16
-6.631490489e-16
-6.819334311e-16
-6.996541383e-16
-7.163031329e-16
-7.318743955e-16
-7.463641218e-16
-7.597700571e-16
-7.720915098e-16
-7.833288962e-16
-7.934836183e-16
-8.025577053e-16
-8.105536799e-16
-8.174742088e-16
-8.233221142e-16
-8.281000093e-16
-8.318102906e-16
-8.344549074e-16
-8.360353653e-16
-4.182870684e-16
-1.275797422e-08
-4.996639808e-07
-2.108018552e-07
5.195060102e-07
4.484917676e-07
-6.630404063e-07
4.1542389e-09
1.565005499e-07
-1.454279435e-07
-3.128753868e-17
-6.645872349e-17
-1.019920529e-16
-1.36063892e-16
-1.696099276e-16
-2.027977376e-16
-2.355904821e-16
-2.679203451e-16
-2.997214282e-16
-3.30935798e-16
-3.615100055e-16
-3.913932342e-16
-4.205376944e-16
-4.488987563e-16
-4.764350166e-16
-5.031082522e-16
-5.28883535e-16
-5.537293869e-16
-5.776175833e-16
-6.005230907e-16
-6.22424039e-16
-6.433013519e-16
-6.631390552e-16
-6.819237564e-16
-6.996449078e-16
-7.162942472e-16
-7.318659736e-16
-7.463560933e-16
-7.597624301e-16
-7.720842196e-16
-7.833219096e-16
-7.934769085e-16
-8.025511469e-16
-8.105471957e-16
-8.174677221e-16
-8.23315525e-16
-8.280932311e-16
-8.318031918e-16
-8.344473823e-16
-8.360273089e-16
-4.182675803e-16
9.905377545e-08
-3.526325162e-07
-2.108432862e-07
3.026207987e-07
5.098612238e-07
-4.257002237e-07
-7.417366405e-08
-7.251280406e-08
-1.042499858e-07
-3.128666294e-17
-6.645317948e-17
-1.019808753e-16
-1.36060803e-16
-1.696045355e-16
-2.02785479e-16
-2.355734969e-16
-2.679002257e-16
-2.996993408e-16
-3.309120651e-16
-3.614845161e-16
-3.913660132e-16
-4.205088892e-16
-4.488686004e-16
-4.764035928e-16
-5.030755603e-16
-5.288496958e-16
-5.53694431e-16
-5.775816623e-16
-6.004863902e-16
-6.223866423e-16
-6.432634652e-16
-6.631007729e-16
-6.818852646e-16
-6.996062477e-16
-7.162555629e-16
-7.31827273e-16
-7.46317445e-16
-7.597238547e-16
-7.720457838e-16
-7.832835866e-16
-7.934386704e-16
-8.025129615e-16
-8.105090478e-16
-8.174295248e-16
-8.232772328e-16
-8.280547511e-16
-8.317644533e-16
-8.344083091e-16
-8.359878063e-16
-4.182319106e-16
2.237615466e-07
-1.200482197e-07
-4.67319823e-08
1.728392799e-07
3.758129505e-07
-2.439844525e-07
-1.018266227e-07
-1.132746645e-07
-1.018500592e-07
-3.128582315e-17
-6.644649576e-17
-1.01965718e-16
-1.360508073e-16
-1.695937121e-16
-2.027673948e-16
-2.355481103e-16
-2.678685064e-16
-2.996632039e-16
-3.308726545e-16
-3.61442019e-16
-3.913204704e-16
-4.204604971e-16
-4.488175685e-16
-4.763501451e-16
-5.030198939e-16
-5.287918408e-16
-5.536345814e-16
-5.775199308e-16
-6.004229818e-16
-6.223218174e-16
-6.431973602e-16
-6.630336382e-16
-6.818172296e-16
-6.99537532e-16
-7.161863025e-16
-7.31757601e-16
-7.462474752e-16
-7.596536981e-16
-7.7197546e-16
-7.832131657e-16
-7.933681636e-16
-8.024424358e-16
-8.104384337e-16
-8.17358865e-16
-8.232064386e-16
-8.279838141e-16
-8.316933116e-16
-8.343369081e-16
-8.359160778e-16
-4.181798429e-16
2.943084723e-07
4.483981526e-08
1.258696555e-07
1.534368337e-07
1.826384692e-07
-1.633258369e-07
-1.436966212e-07
8.494924309e-08
-1.431221315e-07
-3.128193902e-17
-6.6437574e-17
-1.019490176e-16
-1.360299664e-16
-1.695721918e-16
-2.02740369e-16
-2.355132431e-16
-2.678254969e-16
-2.996134201e-16
-3.308175036e-16
-3.613822794e-16
-3.912563488e-16
-4.203922178e-16
-4.487454164e-16
-4.762744385e-16
-5.029407995e-16
-5.287096383e-16
-5.535493836e-16
-5.774320388e-16
-6.003325492e-16
-6.222290831e-16
-6.431026667e-16
-6.629371746e-16
-6.817192871e-16
-6.994383055e-16
-7.160860247e-16
-7.31656511e-16
-7.461457002e-16
-7.59551415e-16
-7.718727536e-16
-7.831101981e-16
-7.932649498e-16
-8.023390675e-16
-8.103349448e-16
-8.17255219e-16
-8.231026992e-16
-8.278799449e-16
-8.315893123e-16
-8.34232712e-16
-8.35811681e-16
-4.181112419e-16
2.928302086e-07
7.381797124e-08
1.699001865e-07
1.338570206e-07
2.004143738e-08
-1.182128639e-07
-1.602151423e-07
5.425558518e-07
-2.147431483e-07
-3.127240717e-17
-6.64211506e-17
-1.019343371e-16
-1.359985399e-16
-1.695369068e-16
-2.027011065e-16
-2.354666015e-16
-2.677703038e-16
-2.995500583e-16
-3.307469564e-16
-3.61305309e-16
-3.91173474e-16
-4.203039037e-16
-4.486519904e-16
-4.761762379e-16
-5.0283821e-16
-5.286028527e-16
-5.534387268e-16
-5.77317694e-16
-6.002148682e-16
-6.221083433e-16
-6.429791723e-16
-6.628112492e-16
-6.815912175e-16
-6.99308431e-16
-7.159546391e-16
-7.315238121e-16
-7.460119803e-16
-7.594168263e-16
-7.717375634e-16
-7.82974497e-16
-7.93128867e-16
-8.02202702e-16
-8.101983311e-16
-8.171185004e-16
-8.229658305e-16
-8.27742993e-16
-8.3145225e-16
-8.340955687e-16
-8.356744445e-16
-4.180262191e-16
2.428170306e-07
2.862573396e-09
7.817882722e-08
4.194014799e-08
-5.349880223e-08
-3.622998235e-08
-8.492075132e-08
1.01014745e-06
-3.316914593e-07
-3.126007353e-17
-6.639751591e-17
-1.019238208e-16
-1.359622182e-16
-1.694904692e-16
-2.026497052e-16
-2.354072332e-16
-2.677020148e-16
-2.994728017e-16
-3.306610212e-16
-3.612112596e-16
-3.910720365e-16
-4.201955625e-16
-4.485373268e-16
-4.760556549e-16
-5.027120406e-16
-5.28471541e-16
-5.533025998e-16
-5.771770411e-16
-6.000700318e-16
-6.219596431e-16
-6.428269774e-16
-6.626559139e-16
-6.814331523e-16
-6.991479809e-16
-7.157921534e-16
-7.31359629e-16
-7.458464169e-16
-7.592501483e-16
-7.715699576e-16
-7.828061567e-16
-7.929600367e-16
-8.020334443e-16
-8.100288218e-16
-8.16948777e-16
-8.227959919e-16
-8.275730854e-16
-8.312823047e-16
-8.339256602e-16
-8.355045019e-16
-4.179250297e-16
1.715902544e-07
-9.710173834e-08
-6.249007167e-08
-7.822233463e-08
-2.219167041e-08
8.07878353e-08
1.004528595e-07
1.377032197e-06
-4.169672149e-07
-3.125096992e-17
-6.636892739e-17
-1.019063488e-16
-1.359193071e-16
-1.694343204e-16
-2.025869148e-16
-2.353355269e-16
-2.676203828e-16
-2.993812012e-16
-3.305595216e-16
-3.611002478e-16
-3.909521171e-16
-4.200674826e-16
-4.484016266e-16
-4.759128818e-16
-5.025626587e-16
-5.283159661e-16
-5.531412281e-16
-5.77010282e-16
-5.998982684e-16
-6.217832527e-16
-6.426463687e-16
-6.624715291e-16
-6.812454254e-16
-6.989573189e-16
-7.155989627e-16
-7.311643495e-16
-7.456493505e-16
-7.590516612e-16
-7.713703438e-16
-7.826056688e-16
-7.927588381e-16
-8.018317635e-16
-8.098267978e-16
-8.167465165e-16
-8.225936269e-16
-8.273706543e-16
-8.310799276e-16
-8.337233586e-16
-8.353023297e-16
-4.178079467e-16
9.385237185e-08
-1.785738531e-07
-1.616078847e-07
-1.162898068e-07
8.411160784e-08
1.215793281e-07
5.016412009e-07
1.206173446e-06
-4.324334326e-07
-3.125012239e-17
-6.634997495e-17
-1.018791073e-16
-1.358703466e-16
-1.693705979e-16
-2.025137567e-16
-2.352521676e-16
-2.675258525e-16
-2.992753081e-16
-3.304423464e-16
-3.609722831e-16
-3.908140531e-16
-4.199199415e-16
-4.482452813e-16
-4.757482826e-16
-5.023904031e-16
-5.281365327e-16
-5.529550775e-16
-5.768178973e-16
-5.997000468e-16
-6.215796603e-16
-6.424378605e-16
-6.622586059e-16
-6.810285364e-16
-6.987369843e-16
-7.153757112e-16
-7.309385551e-16
-7.454215021e-16
-7.588220982e-16
-7.711394012e-16
-7.823736365e-16
-7.925259992e-16
-8.015983329e-16
-8.095929574e-16
-8.165124401e-16
-8.223594271e-16
-8.271364777e-16
-8.308458197e-16
-8.334893689e-16
-8.350686409e-16
-4.176755362e-16
1.794016885e-08
-2.250297523e-07
-1.739689271e-07
-4.767754165e-09
1.58144893e-07
-1.285780114e-07
9.575760776e-07
8.864144648e-07
-3.41373334e-07
-3.124801645e-17
-6.633592176e-17
-1.018363999e-16
-1.358151583e-16
-1.693020259e-16
-2.02432202e-16
-2.351581534e-16
-2.674190712e-16
-2.991554505e-16
-3.303097865e-16
-3.608276367e-16
-3.90658079e-16
-4.197533775e-16
-4.4806877e-16
-4.755624542e-16
-5.021958408e-16
-5.279338143e-16
-5.527447833e-16
-5.766005063e-16
-5.994760509e-16
-6.213495896e-16
-6.422022068e-16
-6.62017887e-16
-6.807833533e-16
-6.984878631e-16
-7.151231899e-16
-7.306831643e-16
-7.451637092e-16
-7.58562311e-16
-7.708780226e-16
-7.821110458e-16
-7.92262476e-16
-8.013341153e-16
-8.093282688e-16
-8.16247499e-16
-8.220943739e-16
-8.268714205e-16
-8.305809337e-16
-8.3322478e-16
-8.348043233e-16
-4.175283707e-16
-4.824760695e-08
-2.41613816e-07
-1.134313119e-07
2.17212459e-07
1.872413387e-07
-6.983369613e-07
9.211799468e-07
-2.244240264e-07
-1.336057222e-07
-3.124183324e-17
-6.632019676e-17
-1.017738138e-16
-1.357485852e-16
-1.692267441e-16
-2.023427322e-16
-2.350541746e-16
-2.673005066e-16
-2.990222388e-16
-3.301622932e-16
-3.606667843e-16
-3.904847339e-16
-4.195683432e-16
-4.478727447e-16
-4.753560259e-16
-5.019797115e-16
-5.277086234e-16
-5.525111303e-16
-5.763589603e-16
-5.992271799e-16
-6.210939245e-16
-6.419403247e-16
-6.61750389e-16
-6.805108286e-16
-6.982109684e-16
-7.148424829e-16
-7.303992205e-16
-7.448770577e-16
-7.582734867e-16
-7.705874232e-16
-7.818190386e-16
-7.919694097e-16
-8.010402937e-16
-8.090339645e-16
-8.159529001e-16
-8.217997119e-16
-8.265768127e-16
-8.302865254e-16
-8.329306776e-16
-8.345106565e-16
-4.17367195e-16
-9.178795881e-08
-2.291823369e-07
-1.019830977e-08
4.643169965e-07
3.267572972e-07
-8.67909883e-07
5.607935299e-07
-1.056512577e-06
-6.086098097e-08
-3.122587844e-17
-6.630832354e-17
-1.017099747e-16
-1.356757958e-16
-1.691444463e-16
-2.022453115e-16
-2.349404492e-16
-2.671704267e-16
-2.988759605e-16
-3.300005269e-16
-3.6049042e-16
-3.90294758e-16
-4.193655725e-16
-4.476578863e-16
-4.751298307e-16
-5.017428641e-16
-5.274618296e-16
-5.522550224e-16
-5.760942236e-16
-5.989544017e-16
-6.208137037e-16
-6.416532792e-16
-6.614572076e-16
-6.802121577e-16
-6.979074909e-16
-7.145348309e-16
-7.300880578e-16
-7.445629293e-16
-7.579569103e-16
-7.702688913e-16
-7.814990087e-16
-7.916482444e-16
-8.007183278e-16
-8.087114394e-16
-8.156300837e-16
-8.214768022e-16
-8.262540542e-16
-8.299640029e-16
-8.326085562e-16
-8.341890672e-16
-4.17192787e-16
-9.819925192e-08
-1.826710739e-07
8.609606008e-08
5.9224273e-07
3.797582975e-07
-6.778083375e-07
1.812863736e-07
-7.606714311e-07
4.68548896e-08
-3.119514907e-17
-6.627956391e-17
-1.016539307e-16
-1.35604245e-16
-1.690574842e-16
-2.021407223e-16
-2.348174647e-16
-2.670292348e-16
-2.987172124e-16
-3.298251067e-16
-3.602993045e-16
-3.90088954e-16
-4.191458867e-16
-4.474251564e-16
-4.748847984e-16
-5.01486286e-16
-5.271944634e-16
-5.51977589e-16
-5.758074272e-16
-5.986588738e-16
-6.205101462e-16
-6.41342389e-16
-6.61139647e-16
-6.798886924e-16
-6.975788063e-16
-7.14201656e-16
-7.297510765e-16
-7.442227347e-16
-7.576141109e-16
-7.699240352e-16
-7.811524952e-16
-7.913005047e-16
-8.003697187e-16
-8.083622982e-16
-8.152806738e-16
-8.211273661e-16