/*--------------------------------*- C++ -*----------------------------------*\
  =========                 |
  \\      /  F ield         | OpenFOAM: The Open Source CFD Toolbox
   \\    /   O peration     | Website:  https://openfoam.org
    \\  /    A nd           | Version:  6
     \\/     M anipulation  |
\*---------------------------------------------------------------------------*/
FoamFile
{
    version     2.0;
    format      ascii;
    class       volScalarField;
    location    "0.1";
    object      p_rgh;
}
// * * * * * * * * * * * * * * * * * * * * * * * * * * * * * * * * * * * * * //

dimensions      [1 -1 -2 0 0 0 0];

internalField   nonuniform List<scalar> 
2500
(
0.4482217983
0.2692878073
0.24558875
0.232982089
0.2418426989
0.266530254
0.2798763047
0.3058831197
27276.40954
27365.43542
27453.48115
27540.02766
27624.3903
27705.96039
27784.21942
27858.74836
27929.23103
27995.45223
28057.29151
28114.71372
28167.75763
28216.52358
28261.16108
28301.85695
28338.82456
28372.29437
28402.50587
28429.70092
28454.11853
28475.99073
28495.53958
28512.97509
28528.49385
28542.27829
28554.49639
28565.30172
28574.83384
28583.21878
28590.56964
28596.98738
28602.56148
28607.37066
28611.48364
28614.95976
28617.84956
28620.19536
28622.03169
28623.38569
28624.27745
28624.72014
0.2362147473
0.2087921823
0.2084239712
0.213869369
0.2260367115
0.2471300122
0.2630982102
0.2637269695
27276.37938
27366.195
27454.98092
27542.21122
27627.18249
27709.27107
27787.94916
27862.79431
27933.49224
27999.83398
28061.70849
28119.09201
28172.03567
28220.65222
28265.10298
28305.58554
28342.32276
28375.55315
28405.52281
28432.47892
28456.66454
28478.31469
28497.65356
28514.8925
28530.22886
28543.84535
28555.90987
28566.57567
28575.98178
28584.2536
28591.50354
28597.83181
28603.32716
28608.06765
28612.1213
28615.54687
28618.39437
28620.70563
28622.51482
28623.84876
28624.72732
28625.16364
0.09816958192
0.1881194478
0.224295223
0.2419389874
0.2437515935
0.2544372419
0.2629029034
0.2504731329
27276.37481
27367.75343
27458.03673
27546.6536
27632.85712
27715.992
27795.51166
27870.98736
27942.1096
28008.68305
28070.61663
28127.91047
28180.64124
28228.94718
28273.01369
28313.06019
28349.3286
28382.07352
28411.55426
28438.02843
28461.74707
28482.95106
28501.86862
28518.71368
28533.68497
28546.96563
28558.72334
28569.1106
28578.26534
28586.31163
28593.36045
28599.51052
28604.84911
28609.45285
28613.38846
28616.71347
28619.47682
28621.71941
28623.47462
28624.76864
28625.62087
28626.04411
-0.0008300935569
0.1662238996
0.2334277975
0.2724342868
0.2719848914
0.2716264958
0.2708344949
0.2623870256
27276.38839
27370.16658
27462.75924
27553.50903
27641.60004
27726.32781
27807.11782
27883.53363
27955.27561
28022.17196
28084.16462
28141.29222
28193.67199
28241.48202
28284.94495
28324.31357
28359.85863
28391.85887
28420.59313
28446.33436
28469.34518
28489.87483
28508.1572
28524.40969
28538.83276
28551.60996
28562.90837
28572.87918
28581.6585
28589.3683
28596.1173
28602.0019
28607.10711
28611.50738
28615.26744
28618.44296
28621.08126
28623.22183
28624.89684
28626.13156
28626.94467
28627.34846
-0.07105495073
0.131981017
0.2220365206
0.2878305544
0.2946545272
0.2768618245
0.2727584498
0.2706582001
27276.40382
27373.52645
27469.32484
27563.02282
27653.70574
27740.60095
27823.09776
27900.75344
27973.28708
28040.56451
28102.57774
28159.42201
28211.2728
28258.36441
28300.97108
28339.39116
28373.93421
28404.91097
28432.62587
28457.37159
28479.42539
28499.04686
28516.47667
28531.93615
28545.62746
28557.73418
28568.42212
28577.84036
28586.12232
28593.38693
28599.73971
28605.27385
28610.07122
28614.20334
28617.73217
28620.7109
28623.18465
28625.19101
28626.76058
28627.91734
28628.679
28629.05723
-0.1014662592
0.08490886064
0.1795876394
0.2746699295
0.2919762839
0.2738589294
0.2691563374
0.2715749949
27276.41541
27377.96712
27477.991
27575.55112
27669.59854
27759.2719
27843.91832
27923.0949
27996.55452
28064.22117
28126.15989
28182.54551
28233.63317
28279.73221
28321.18439
28358.34646
28391.57682
28421.22576
28447.62867
28471.10165
28491.93889
28510.41155
28526.76749
28541.23182
28554.00783
28565.27827
28575.20668
28583.93893
28591.60463
28598.31854
28604.18192
28609.28373
28613.70179
28617.50379
28620.74819
28623.48503
28625.75664
28627.59822
28629.03836
28630.09945
28630.79799
28631.14487
-0.09014724235
0.04676103802
0.1247842995
0.2323782885
0.2715202487
0.2724771503
0.2565401344
0.2698322536
27276.41881
27383.67946
27489.12095
27591.59134
27689.86454
27782.96899
27870.20803
27951.15278
28025.61461
28093.60566
28155.29521
28210.96723
28260.98255
28305.74739
28345.68844
28381.23419
28412.80164
28440.78742
28465.56231
28487.46838
28506.81796
28523.89396
28538.95095
28552.21686
28563.89486
28574.16546
28583.1885
28591.10518
28598.03986
28604.10184
28609.38686
28613.97854
28617.9496
28621.36303
28624.27296
28626.7256
28628.75987
28630.40808
28631.69641
28632.64532
28633.26988
28633.58
-0.05479734197
0.03063403096
0.08510904518
0.1840006048
0.2489271801
0.2627565091
0.2392873979
0.2659452318
27276.42358
27390.93759
27503.22192
27611.82764
27715.29811
27812.53039
27902.79111
27985.69294
28061.14507
28129.29149
28190.44816
28245.04592
28293.58287
28336.58696
28374.58849
28408.101
28437.60899
28463.56088
28486.36572
28506.39257
28523.97162
28539.39639
28552.92654
28564.79086
28575.19038
28584.30131
28592.27781
28599.25454
28605.34894
28610.66325
28615.28631
28619.29512
28622.75624
28625.72695
28628.25624
28630.38574
28632.15037
28633.57904
28634.69511
28635.51677
28636.05743
28636.32588
-0.01282467607
0.03382235274
0.06805476418
0.1402979949
0.2114452433
0.2382121896
0.2384274807
0.2602132008
27276.45363
27400.13212
27521.00117
27637.19756
27746.9682
27849.06189
27942.73188
28027.68196
28103.98076
28171.96694
28232.16014
28285.1858
28331.7166
28372.42979
28407.97835
28438.97318
28465.97336
28489.48236
28509.94812
28527.76557
28543.28058
28556.7945
28568.56902
28578.83075
28587.77558
28595.57268
28602.36799
28608.28737
28613.43926
28617.91707
28621.80116
28625.16057
28628.05448
28630.53347
28632.64052
28634.41193
28635.87804
28637.06383
28637.98942
28638.67045
28639.11841
28639.34082
0.005576250498
0.03218008663
0.05278254229
0.09628618445
0.1547973327
0.2008115634
0.2476951758
0.2257737302
27276.49732
27411.82275
27543.45207
27668.99088
27786.31292
27894.01507
27991.39104
28078.32124
28155.12856
28222.43528
28281.03989
28331.82105
28375.66863
28413.43804
28445.92286
28473.84098
28497.8299
28518.44809
28536.17986
28551.44207
28564.59167
28575.93309
28585.72538
28594.18861
28601.50961
28607.84694
28613.33523
28618.0888
28622.20479
28625.76575
28628.84184
28631.49268
28633.76883
28635.71312
28637.36163
28638.74463
28639.88724
28640.81004
28641.52951
28642.05843
28642.40615
28642.5788
0.0006133006149
0.02037633452
0.0254556266
0.04563336348
0.08788859928
0.1438967219
0.2100364212
0.1025936838
27276.68231
27426.86321
27571.99119
27708.99748
27835.27426
27949.29174
28050.49406
28139.08223
28215.77645
28281.60576
28337.7435
28385.39056
28425.6997
28459.73185
28488.43512
28512.63906
28533.05827
28550.30135
28564.88224
28577.23229
28587.71203
28596.6219
28604.21189
28610.6898
28616.22839
28620.97135
28625.0383
28628.52895
28631.52649
28634.10044
28636.30893
28638.20063
28639.81622
28641.18972
28642.34945
28643.31892
28644.11746
28644.76077
28645.26135
28645.62882
28645.87019
28645.99005
-0.007161859778
0.002137702021
-0.005757127675
-0.0067178684
0.02807447366
0.07325770151
0.08211797204
-0.1017558432
27278.0362
27446.52943
27608.64771
27759.72836
27896.49023
28017.38002
28122.20894
28211.73596
28287.28892
28350.46809
28402.93852
28446.29897
28482.0089
28511.35574
28535.44794
28555.22307
28571.46398
28584.81799
28595.8166
28604.89395
28612.40336
28618.63171
28623.81158
28628.13141
28631.7439
28634.77288
28637.3188
28639.46332
28641.2729
28642.80172
28644.09398
28645.18585
28646.10688
28646.88125
28647.52871
28648.06533
28648.50411
28648.85545
28649.1275
28649.32651
28649.45696
28649.52177
-0.01545720144
-0.01721485107
-0.02809228302
-0.04814301207
-0.01962848947
-0.001399721625
-0.1036106386
-0.2805967089
27277.33377
27471.97362
27656.3317
27824.76952
27973.57167
28101.52465
28209.22319
28298.36271
28371.17523
28430.03994
28477.2447
28514.85927
28544.68263
28568.23575
28586.77923
28601.34267
28612.75787
28621.69126
28628.67342
28634.1247
28638.37689
28641.69112
28644.2724
28646.28144
28647.84404
28649.05855
28650.00179
28650.73375
28651.30121
28651.74067
28652.08057
28652.34305
28652.54535
28652.70087
28652.82
28652.91078
28652.9794
28653.0306
28653.06791
28653.09396
28653.11057
28653.1189
-0.02512828087
-0.03288035859
-0.04362643562
-0.07142727769
-0.0646845633
-0.07776869975
-0.2563749615
-0.2043296677
27277.63455
27506.82876
27719.92236
27909.43401
28071.49344
28205.91847
28314.79404
28401.31605
28469.01021
28521.27323
28561.14291
28591.21268
28613.62845
28630.12716
28642.09219
28650.61203
28656.53498
28660.51709
28663.06236
28664.55572
28665.28954
28665.48458
28665.30656
28664.87902
28664.29337
28663.61657
28662.89716
28662.16977
28661.45863
28660.78032
28660.14571
28659.56158
28659.03176
28658.55804
28658.1408
28657.77956
28657.47332
28657.22082
28657.02079
28656.87206
28656.77368
28656.72496
-0.03765376111
-0.04690039563
-0.05767464996
-0.08146490634
-0.1024500996
-0.1514776477
-0.3008805311
0.2653494256
27279.56858
27556.54009
27807.07391
28021.53246
28197.03847
28335.85643
28442.71709
28523.09823
28582.27851
28624.90251
28654.84375
28675.22266
28688.49368
28696.55431
28700.85219
28702.47992
28702.25443
28700.7811
28698.50445
28695.74749
28692.74211
28689.65222
28686.59131
28683.63578
28680.8349
28678.2183
28675.80161
28673.59061
28671.58434
28669.77738
28668.1615
28666.72694
28665.46323
28664.35988
28663.40678
28662.59453
28661.91467
28661.35977
28660.92357
28660.60102
28660.38832
28660.2829
-0.05290216692
-0.06152110017
-0.07232402683
-0.09188291865
-0.1090778948
-0.2020442561
-0.2313570321
1.030787223
27284.4765
27630.99943
27930.26719
28172.55787
28359.25939
28497.74819
28597.12093
28666.08477
28712.10731
28741.21874
28758.11073
28766.34382
28768.5721
28766.7466
28762.28436
28756.20276
28749.22323
28741.84982
28734.4281
28727.18884
28720.28031
28713.79194
28707.77175
28702.23896
28697.1932
28692.62116
28688.50142
28684.8078
28681.51184
28678.58444
28675.99709
28673.72256
28671.73548
28670.01262
28668.53306
28667.27829
28666.23223
28665.38119
28664.71388
28664.22133
28663.89686
28663.73603
-0.07020321095
-0.07813106
-0.08772686339
-0.1058917229
-0.1102792604
-0.2155768687
-0.1104070844
1.745400243
27300.14896
27750.54608
28110.38692
28379.14263
28569.68457
28698.75816
28781.94014
28832.02013
28858.8543
28869.76049
28870.04164
28863.47381
28852.70754
28839.57824
28825.33802
28810.82532
28796.58742
28782.96819
28770.1705
28758.3006
28747.3994
28737.46453
28728.46582
28720.35613
28713.07879
28706.57277
28700.77615
28695.62839
28691.07183
28687.05256
28683.52095
28680.43185
28677.74464
28675.4232
28673.4357
28671.75451
28670.35593
28669.22007
28668.33063
28667.67476
28667.24295
28667.02891
-0.08934301571
-0.09675089525
-0.1060579526
-0.1240260528
-0.132233126
-0.1724359754
-0.06508164079
1.98682874
27359.85814
27957.98603
28381.53331
28663.92182
28841.58405
28945.67387
28999.87629
29021.21432
29021.53972
29008.93534
28988.82762
28964.80683
28939.20949
28913.52348
28888.66626
28865.17477
28843.33439
28823.26625
28804.98623
28788.44471
28773.55317
28760.20193
28748.27185
28737.64191
28728.19404
28719.81598
28712.40304
28705.85882
28700.09558
28695.03409
28690.60339
28686.74034
28683.38917
28680.50096
28678.0332
28675.94927
28674.21809
28672.8137
28671.71497
28670.90531
28670.37246
28670.10834
-0.1097739906
-0.1162651269
-0.1256678197
-0.1383944409
-0.1513375012
-0.1447747729
-0.2205103642
1.531329431
27578.34079
28336.83625
28793.83196
29053.45364
29187.09339
29242.5105
29250.70297
29231.44034
29197.1686
29155.62316
29111.53343
29067.72115
29025.80354
28986.64244
28950.63067
28917.87463
28888.31037
28861.77727
28838.06446
28816.93978
28798.16755
28781.51907
28766.77864
28753.74657
28742.24041
28732.09506
28723.16218
28715.30929
28708.41861
28702.3859
28697.11926
28692.53805
28688.57184
28685.15941
28682.24799
28679.79243
28677.75462
28676.10285
28674.81143
28673.86022
28673.23442
28672.92424
-0.1307253142
-0.1364353514
-0.1470751418
-0.1577845949
-0.1858725954
-0.1613974352
-0.3231102873
0.5639756468
28216.30982
29013.67434
29403.67277
29569.08568
29610.90936
29586.62818
29529.02168
29456.69936
29380.08662
29304.86522
29233.96831
29168.7451
29109.644
29056.61409
29009.34086
28967.38388
28930.25616
28897.46886
28868.55536
28843.08321
28820.65897
28800.92899
28783.57792
28768.32618
28754.92687
28743.16258
28732.8423
28723.79854
28715.88469
28708.97265
28702.95075
28697.72186
28693.20181
28689.31797
28686.00804
28683.219
28680.90625
28679.03282
28677.56883
28676.49093
28675.78192
28675.43053
-0.1511507748
-0.1568278243
-0.1687844985
-0.1809399387
-0.2125313938
-0.1989053421
-0.352478581
-0.2924984098
29581.79905
30094.70074
30238.50545
30208.52505
30100.95409
29964.14238
29822.09748
29686.27289
29561.62746
29449.79117
29350.73446
29263.64997
29187.41517
29120.83029
29062.73567
29012.06456
28967.86216
28929.28725
28895.60551
28866.17936
28840.45682
28817.9607
28798.27862
28781.05417
28765.97916
28752.78698
28741.24682
28731.15883
28722.34994
28714.6703
28707.99028
28702.1979
28697.19667
28692.90374
28689.24833
28686.17043
28683.61969
28681.55452
28679.94132
28678.75389
28677.973
28677.58599
-0.1697388081
-0.176120131
-0.1887908893
-0.205400774
-0.2338015456
-0.2642619986
-0.3620586682
-0.8574708269
31712.36552
31543.14514
31247.6119
30925.79497
30620.36176
30346.95292
30108.98579
29904.6843
29730.36784
29581.94187
29455.53045
29347.70605
29255.53676
29176.5564
29108.70705
29050.27664
28999.84086
28956.21275
28918.40045
28885.57235
28857.0288
28832.179
28810.52239
28791.63346
28775.14944
28760.7602
28748.20007
28737.24097
28727.68693
28719.36934
28712.1432
28705.88384
28700.48431
28695.85308
28691.91222
28688.59583
28685.84872
28683.6254
28681.88918
28680.6115
28679.77137
28679.35502
-0.1851421619
-0.1926137327
-0.2055776682
-0.2281384772
-0.2504684242
-0.3291445124
-0.3186055822
-1.202565425
34194.6202
33119.02054
32283.28174
31626.81685
31107.80657
30694.34806
30362.21834
30093.11311
29873.21703
29692.07621
29541.73742
29416.10521
29310.46796
29221.15037
29145.2587
29080.49359
29025.01163
28977.32241
28936.21131
28900.68109
28869.90743
28843.20462
28819.99908
28799.80854
28782.22568
28766.90515
28753.55314
28741.91899
28731.78841
28722.97792
28715.33035
28708.71101
28703.00472
28698.11315
28693.95277
28690.45306
28687.5551
28685.21033
28683.37968
28682.03272
28681.14713
28680.70827
-0.1960828325
-0.2045220582
-0.2170935128
-0.2439129131
-0.2549445303
-0.3640289359
-0.2024241435
-1.316757202
36360.11958
34459.75043
33139.57951
32190.3346
31489.66144
30960.38507
30552.40422
30232.31632
29977.29884
29771.39967
29603.23137
29464.50475
29349.07617
29252.31604
29170.68215
29101.4263
29042.389
28991.85363
28948.44121
28911.03342
28878.7155
28850.73342
28826.46133
28805.37657
28787.04032
28771.08238
28757.1892
28745.09433
28734.57073
28725.42458
28717.49026
28710.62619
28704.71148
28699.64313
28695.33376
28691.70969
28688.70941
28686.28231
28684.38764
28682.99373
28682.07734
28681.62322
-0.2017134949
-0.2106498067
-0.2225758543
-0.2508214594
-0.2515672967
-0.366529625
-0.07047032628
-1.24757026
37610.55367
35228.29334
33624.51575
32505.05442
31699.98415
31105.04321
30654.64451
30306.41507
30032.23987
29812.97719
29635.27339
29489.59919
29369.01105
29268.35209
29183.72528
29112.13895
29051.26348
28999.26135
28954.66627
28916.29591
28883.18796
28854.55261
28829.73674
28808.19671
28789.47735
28773.19561
28759.02779
28746.69929
28735.97653
28726.6604
28718.58094
28711.59305
28705.57293
28700.41522
28696.03055
28692.34364
28689.29168
28686.82299
28684.896
28683.47838
28682.54644
28682.08462
-0.2017135043
-0.2106498143
-0.2225758585
-0.2508214582
-0.2515672889
-0.3665296063
-0.07047030215
-1.247570218
37610.55357
35228.29331
33624.51571
32505.05437
31699.9841
31105.04315
30654.64444
30306.415
30032.23981
29812.97714
29635.27334
29489.59915
29369.01102
29268.35207
29183.72527
29112.13895
29051.26349
28999.26137
28954.6663
28916.29595
28883.18801
28854.55267
28829.73681
28808.19678
28789.47742
28773.1957
28759.02788
28746.69939
28735.97663
28726.66051
28718.58105
28711.59317
28705.57306
28700.41534
28696.03067
28692.34377
28689.29181
28686.82313
28684.89613
28683.47852
28682.54657
28682.08476
-0.1960828615
-0.204522082
-0.2170935264
-0.2439129107
-0.2549445062
-0.3640288836
-0.202424069
-1.316757065
36360.11922
34459.75033
33139.57939
32190.33446
31489.66127
30960.38488
30552.40402
30232.31612
29977.29865
29771.3995
29603.23122
29464.50463
29349.07608
29252.31597
29170.68212
29101.4263
29042.38903
28991.85369
28948.4413
28911.03354
28878.71565
28850.73359
28826.46152
28805.37679
28787.04056
28771.08264
28757.18948
28745.09462
28734.57104
28725.42491
28717.4906
28710.62654
28704.71184
28699.6435
28695.33414
28691.71008
28688.70981
28686.28271
28684.38805
28682.99414
28682.07775
28681.62364
-0.1851422129
-0.1926137758
-0.2055776937
-0.2281384751
-0.2504683822
-0.3291444258
-0.3186054586
-1.202565206
34194.61965
33119.02036
32283.28155
31626.81661
31107.80629
30694.34774
30362.218
30093.11277
29873.21671
29692.07592
29541.73717
29416.105
29310.46781
29221.15026
29145.25864
29080.49359
29025.01168
28977.32251
28936.21146
28900.68129
28869.90767
28843.2049
28819.9994
28799.8089
28782.22608
28766.90558
28753.5536
28741.91948
28731.78893
28722.97847
28715.33091
28708.7116
28703.00533
28698.11378
28693.95341
28690.45372
28687.55576
28685.21101
28683.38036
28682.03341
28681.14783
28680.70897
-0.1697388849
-0.1761201984
-0.1887909312
-0.2054007732
-0.2338014824
-0.2642618764
-0.3620585304
-0.8574706255
31712.36507
31543.14497
31247.61167
30925.79464
30620.36134
30346.95244
30108.98529
29904.6838
29730.36737
29581.94144
29455.53008
29347.70575
29255.53654
29176.55625
29108.70697
29050.27664
28999.84093
28956.2129
28918.40066
28885.57263
28857.02914
28832.1794
28810.52284
28791.63397
28775.15
28760.76081
28748.20072
28737.24167
28727.68766
28719.3701
28712.14399
28705.88467
28700.48516
28695.85396
28691.91313
28688.59675
28685.84965
28683.62635
28681.89014
28680.61247
28679.77235
28679.356
-0.1511508822
-0.1568279254
-0.1687845664
-0.1809399367
-0.2125312876
-0.1989051373
-0.3524783853
-0.29249822
29581.79924
30094.70074
30238.50522
30208.52462
30100.95351
29964.14172
29822.09678
29686.27221
29561.62682
29449.7906
29350.73397
29263.64957
29187.41487
29120.8301
29062.73557
29012.06456
28967.86226
28929.28744
28895.60579
28866.17972
28840.45727
28817.96122
28798.27921
28781.05483
28765.97989
28752.78776
28741.24766
28731.15973
28722.35089
28714.67129
28707.99131
28702.19897
28697.19777
28692.90487
28689.24949
28686.17161
28683.6209
28681.55574
28679.94255
28678.75514
28677.97426
28677.58725
-0.1307254593
-0.1364355063
-0.1470752638
-0.1577846012
-0.1858724084
-0.1613969301
-0.3231095564
0.5639761663
28216.31099
29013.67459
29403.67251
29569.0851
29610.90857
29586.62728
29529.02075
29456.69846
29380.0858
29304.86449
29233.96769
29168.74461
29109.64364
29056.61385
29009.34074
28967.38389
28930.25629
28897.4691
28868.55571
28843.08366
28820.65952
28800.92963
28783.57865
28768.32699
28754.92776
28743.16354
28732.84333
28723.79964
28715.88585
28708.97387
28702.95201
28697.72317
28693.20316
28689.31936
28686.00947
28683.22046
28680.90773
28679.03432
28677.57035
28676.49246
28675.78346
28675.43207
-0.1097741814
-0.116265373
-0.1256680673
-0.1383945402
-0.1513372705
-0.1447737428
-0.2205086025
1.531330874
27578.34171
28336.83638
28793.83151
29053.45278
29187.09228
29242.50928
29250.70175
29231.43918
29197.16756
29155.62225
29111.53268
29067.72055
29025.8031
28986.64215
28950.63054
28917.87465
28888.31053
28861.77756
28838.06488
28816.94033
28798.16821
28781.51984
28766.77951
28753.74754
28742.24147
28732.0962
28723.16341
28715.3106
28708.41999
28702.38734
28697.12076
28692.53961
28688.57344
28685.16106
28682.24968
28679.79416
28677.75637
28676.10463
28674.81323
28673.86204
28673.23624
28672.92607
-0.08934325514
-0.09675128273
-0.1060584532
-0.1240264822
-0.1322331981
-0.1724348774
-0.06507967915
1.986831112
27359.85833
27957.98585
28381.53249
28663.92052
28841.58249
28945.67223
28999.8747
29021.21286
29021.53843
29008.93424
28988.82672
28964.80612
28939.20898
28913.52316
28888.66612
28865.1748
28843.33458
28823.2666
28804.98673
28788.44535
28773.55394
28760.20283
28748.27287
28737.64304
28728.19527
28719.81732
28712.40447
28705.86034
28700.09718
28695.03577
28690.60513
28686.74215
28683.39103
28680.50288
28678.03516
28675.95127
28674.22013
28672.81577
28671.71706
28670.90741
28670.37457
28670.11046
-0.07020348781
-0.07813162599
-0.08772774975
-0.105892838
-0.1102804938
-0.2155776612
-0.1104073864
1.745406216
27300.14938
27750.54587
28110.38557
28379.14065
28569.68237
28698.75598
28781.93812
28832.01832
28858.85274
28869.75918
28870.04058
28863.47299
28852.70696
28839.57788
28825.33787
28810.82537
28796.58766
28782.9686
28770.17108
28758.30134
28747.40029
28737.46556
28728.46699
28720.35742
28713.0802
28706.5743
28700.77778
28695.63012
28691.07365
28687.05447
28683.52294
28680.43391
28677.74677
28675.42538
28673.43794
28671.75679
28670.35825
28669.22242
28668.33301
28667.67716
28667.24536
28667.03133
-0.05290244692
-0.06152183206
-0.07232533591
-0.09188494919
-0.1090805441
-0.2020467886
-0.2313597766
1.030850401
27284.48587
27630.99973
27930.26484
28172.55481
28359.2563
28497.74533
28597.1184
28666.08259
28712.10548
28741.21723
28758.10954
28766.34291
28768.57146
28766.74622
28762.28422
28756.20284
28749.22352
28741.85031
28734.42878
28727.18969
28720.28132
28713.79312
28707.77308
28702.24043
28697.1948
28692.62289
28688.50326
28684.80975
28681.51389
28678.58659
28675.99932
28673.72487
28671.73787
28670.01507
28668.53557
28667.28086
28666.23484
28665.38384
28664.71656
28664.22403
28663.89957
28663.73875
-0.03765398835
-0.04690119679
-0.05767625572
-0.08146771578
-0.1024537981
-0.1514796424
-0.3008800981
0.26528735
27279.56069
27556.53447
27807.06861
28021.5276
28197.03422
28335.8528
28442.71403
28523.09568
28582.27641
28624.90082
28654.84243
28675.22167
28688.493
28696.55392
28700.85206
28702.48003
28702.25478
28700.78167
28698.50522
28695.74846
28692.74326
28689.65354
28686.5928
28683.63743
28680.83669
28678.22023
28675.80366
28673.59279
28671.58663
28669.77977
28668.16399
28666.72951
28665.46589
28664.36261
28663.40958
28662.59739
28661.91757
28661.36271
28660.92655
28660.60402
28660.39133
28660.28593
-0.02512839598
-0.03288103482
-0.04362798658
-0.07143018046
-0.06468827277
-0.07776994699
-0.2563718019
-0.2043740828
27277.62819
27506.81923
27719.91396
27909.42723
28071.48802
28205.91411
28314.79051
28401.31319
28469.00791
28521.2714
28561.1415
28591.21164
28613.62775
28630.12677
28642.09209
28650.6122
28656.53541
28660.51775
28663.06324
28664.55682
28665.29084
28665.48606
28665.30822
28664.88085
28664.29535
28663.61871
28662.89944
28662.17218
28661.46117
28660.78297
28660.14846
28659.56443
28659.0347
28658.56105
28658.14389
28657.78271
28657.47652
28657.22407
28657.02408
28656.87538
28656.77701
28656.7283
-0.01545715632
-0.01721516181
-0.02809333389
-0.04814490851
-0.01963094642
-0.001400303419
-0.1036079784
-0.2807771495
27277.30858
27471.95585
27656.31971
27824.76106
27973.56539
28101.5198
28209.21935
28298.35965
28371.1728
28430.03802
28477.24324
28514.85821
28544.68193
28568.23539
28586.77918
28601.34291
28612.75838
28621.69203
28628.67442
28634.12593
28638.37834
28641.69277
28644.27424
28646.28347
28647.84624
28649.0609
28650.00429
28650.73639
28651.30399
28651.74358
28652.08359
28652.34617
28652.54857
28652.70417
28652.82338
28652.91423
28652.98291
28653.03416
28653.07151
28653.09759
28653.11422
28653.12256
-0.007161592855
0.002138048013
-0.005757102369
-0.006718120267
0.02807362768
0.07325732266
0.08211888863
-0.1021854286
27277.97716
27446.50503
27608.63437
27759.71957
27896.48382
28017.37508
28122.20504
28211.73284
28287.28645
28350.46616
28402.93707
28446.29793
28482.00824
28511.35544
28535.44796
28555.22339
28571.46459
28584.81887
28595.81773
28604.89532
28612.40497
28618.63353
28623.8136
28628.13363
28631.74631
28634.77545
28637.32153
28639.46621
28641.27594
28642.80488
28644.09727
28645.18925
28646.11038
28646.88485
28647.5324
28648.06909
28648.50794
28648.85932
28649.13142
28649.33046
28649.46093
28649.52575
0.0006138309453
0.02037744734
0.02545704569
0.04563447553
0.08788857905
0.1438960225
0.2100355153
0.102632015
27276.68752
27426.8557
27571.98305
27708.99057
27835.26862
27949.28716
28050.49034
28139.07922
28215.77404
28281.60388
28337.74209
28385.38958
28425.69911
28459.73162
28488.43523
28512.63948
28533.059
28550.30236
28564.88351
28577.23382
28587.7138
28596.62391
28604.21411
28610.69223
28616.23101
28620.97416
28625.04128
28628.53209
28631.52978
28634.10387
28636.3125
28638.20432
28639.82002
28641.19362
28642.35344
28643.323
28644.12161
28644.76497
28645.26559
28645.6331
28645.8745
28645.99437
0.005576936243
0.0321818037
0.05278479813
0.09628763409
0.1547970902
0.2008102822
0.2476932363
0.2257978241
27276.50081
27411.82003
27543.44722
27668.98579
27786.30828
27894.01104
27991.38765
28078.31843
28155.12629
28222.43351
28281.03857
28331.82015
28375.66813
28413.4379
28445.92307
28473.84152
28497.83076
28518.44924
28536.18129
28551.44377
28564.59362
28575.93529
28585.7278
28594.19125
28601.51245
28607.84998
28613.33846
28618.0922
28622.20835
28625.76946
28628.84569
28631.49666
28633.77293
28635.71733
28637.36594
28638.74903
28639.89171
28640.81457
28641.53409
28642.06305
28642.4108
28642.58346
-0.01282415273
0.03382413404
0.06805686644
0.1402988974
0.2114443688
0.2382105499
0.2384254976
0.2602179752
27276.45452
27400.13017
27520.99771
27637.19363
27746.96436
27849.05841
27942.72885
28027.6794
28103.97868
28171.96531
28232.15894
28285.18502
28331.71621
28372.42976
28407.97869
28438.97385
28465.97435
28489.48366
28509.94971
28527.76744
28543.28271
28556.7969
28568.57166
28578.83361
28587.77866
28595.57596
28602.37147
28608.29103
28613.44309
28617.92106
28621.8053
28625.16485
28628.0589
28630.538
28632.64515
28634.41666
28635.88285
28637.06871
28637.99435
28638.67542
28639.12341
28639.34583
-0.05479718092
0.03063531906
0.08511040082
0.1840008117
0.2489259058
0.2627548162
0.2392857746
0.2659335885
27276.42219
27390.93508
27503.21879
27611.82429
27715.29482
27812.52735
27902.78841
27985.69064
28061.14319
28129.29003
28190.4471
28245.04527
28293.58261
28336.58707
28374.58896
28408.10181
28437.61013
28463.56234
28486.36749
28506.39462
28523.97395
28539.39899
28552.92939
28564.79396
28575.1937
28584.30484
28592.28155
28599.25848
28605.35306
28610.66754
28615.29075
28619.29971
28622.76097
28625.7318
28628.26121
28630.3908
28632.15552
28633.58427
28634.70039
28635.5221
28636.06279
28636.33125
-0.0901473542
0.04676173252
0.124785046
0.2323782346
0.2715191017
0.2724755739
0.2565388023
0.2697954506
27276.41392
27383.67588
27489.11777
27591.58829
27689.86162
27782.96629
27870.20562
27951.15072
28025.61292
28093.60436
28155.29431
28210.96671
28260.98242
28305.74764
28345.68905
28381.23515
28412.80295
28440.78905
28465.56426
28487.47063
28506.8205
28523.89677
28538.95403
28552.22019
28563.89843
28574.16926
28583.19251
28591.10939
28598.04427
28604.10643
28609.39161
28613.98344
28617.95465
28621.36821
28624.27826
28626.731
28628.76537
28630.41366
28631.70206
28632.65102
28633.27561
28633.58575
-0.1014664512
0.08490922333
0.1795881597
0.2746699367
0.2919756105
0.2738577744
0.2691551858
0.2715274505
27276.40902
27377.96339
27477.98802
27575.54836
27669.59591
27759.26947
27843.91614
27923.09303
27996.55301
28064.22004
28126.15914
28182.54515
28233.63319
28279.7326
28321.18515
28358.34758
28391.57829
28421.22757
28447.63081
28471.10409
28491.94164
28510.41459
28526.7708
28541.23539
28554.01166
28565.28233
28575.21097
28583.94343
28591.60933
28598.32343
28604.18698
28609.28896
28613.70717
28617.50931
28620.75383
28623.49079
28625.7625
28627.60417
28629.04438
28630.10552
28630.80411
28631.151
-0.07105505944
0.131981155
0.2220368482
0.2878305148
0.2946539215
0.2768610021
0.2727574671
0.2706421471
27276.40175
27373.52447
27469.3226
27563.02043
27653.70336
27740.59871
27823.09576
27900.75174
27973.28573
28040.56352
28102.57713
28159.42179
28211.27297
28258.36496
28300.972
28339.39245
28373.93586
28404.91297
28432.62821
28457.37424
28479.42836
28499.05013
28516.48023
28531.93998
28545.63155
28557.73852
28568.42669
28577.84515
28586.12732
28593.39213
28599.74509
28605.2794
28610.07694
28614.2092
28617.73816
28620.71702
28623.19088
28625.19734
28626.76699
28627.92381
28628.68551
28629.06377
-0.0008302707541
0.1662233647
0.2334274309
0.2724338913
0.2719841337
0.2716255903
0.2708335276
0.2624186356
27276.39289
27370.16669
27462.75765
27553.50685
27641.59776
27726.32567
27807.11592
27883.53205
27955.27438
28022.17111
28084.16415
28141.29214
28193.6723
28241.48272
28284.94604
28324.31504
28359.86046
28391.86106
28420.59567
28446.33723
28469.34837
28489.87834
28508.16101
28524.41378
28538.83712
28551.61458
28562.91324
28572.88427
28581.66381
28589.37382
28596.12301
28602.00779
28607.11316
28611.5136
28615.2738
28618.44945
28621.08786
28623.22853
28624.90364
28626.13844
28626.9516
28627.35542
0.09816887105
0.1881177148
0.2242937208
0.2419377694
0.2437504529
0.2544360979
0.2629018155
0.2505020345
27276.37895
27367.75295
27458.03468
27546.65115
27632.85471
27715.98983
27795.5098
27870.98585
27942.10847
28008.68231
28070.61629
28127.91053
28180.64171
28228.94805
28273.01495
28313.06184
28349.33062
28382.07591
28411.55701
28438.03152
28461.7505
28482.95481
28501.87268
28518.71804
28533.6896
28546.97054
28558.7285
28569.116
28578.27097
28586.31747
28593.36649
28599.51675
28604.85551
28609.45941
28613.39518
28616.72033
28619.4838
28621.72651
28623.48182
28624.77594
28625.62824
28626.05151
0.2362134332
0.2087893012
0.2084213245
0.2138673769