/*--------------------------------*- C++ -*----------------------------------*\
  =========                 |
  \\      /  F ield         | OpenFOAM: The Open Source CFD Toolbox
   \\    /   O peration     | Website:  https://openfoam.org
    \\  /    A nd           | Version:  6
     \\/     M anipulation  |
\*---------------------------------------------------------------------------*/
FoamFile
{
    version     2.0;
    format      ascii;
    class       surfaceScalarField;
    location    "0.1";
    object      phi;
}
// * * * * * * * * * * * * * * * * * * * * * * * * * * * * * * * * * * * * * //

dimensions      [0 3 -1 0 0 0 0];

internalField   nonuniform List<scalar> 
4900
(
-3.831386484e-08
-1.002463793e-07
1.48782057e-08
-5.319207059e-08
3.13747652e-08
-1.64965595e-08
3.20991324e-08
-7.243671615e-10
2.685513516e-08
5.24399727e-09
1.563856416e-08
1.1216571e-08
1.185771099e-09
1.445279306e-08
-9.588412963e-18
1.185771117e-09
-8.880408493e-21
4.465742209e-24
-8.804441055e-21
-7.596743721e-23
-8.65445351e-21
-1.499903324e-22
-8.436085571e-21
-2.183742048e-22
-8.156854335e-21
-2.792407682e-22
-7.825774925e-21
-3.310921181e-22
-7.452791962e-21
-3.729988065e-22
-7.048191663e-21
-4.046192431e-22
-6.622070184e-21
-4.261434867e-22
-6.183900027e-21
-4.381951832e-22
-5.742212957e-21
-4.417150686e-22
-5.304400189e-21
-4.378436823e-22
-4.876618423e-21
-4.278155403e-22
-4.46378311e-21
-4.128718797e-22
-4.069627647e-21
-3.94194757e-22
-3.696807515e-21
-3.728620777e-22
-3.347030921e-21
-3.498211162e-22
-3.021200865e-21
-3.258770745e-22
-2.71955732e-21
-3.016929751e-22
-2.441811647e-21
-2.777974275e-22
-2.187268323e-21
-2.545973136e-22
-1.954931408e-21
-2.323930482e-22
-1.743594912e-21
-2.113946786e-22
-1.551917433e-21
-1.917376156e-22
-1.378482192e-21
-1.734972342e-22
-1.221844028e-21
-1.567019149e-22
-1.080565091e-21
-1.413443474e-22
-9.532409755e-22
-1.273910854e-22
-8.385189542e-22
-1.147904494e-22
-7.351098051e-22
-1.034789348e-22
-6.417945315e-22
-9.338631572e-23
-5.574270945e-22
-8.443963451e-23
-4.809340792e-22
-7.656626691e-23
-4.113120524e-22
-6.969623159e-23
-3.476232127e-22
-6.376389675e-23
-2.889898064e-22
-5.870921521e-23
-2.345876637e-22
-5.447860325e-23
-1.836391061e-22
-5.102556986e-23
-1.354053456e-22
-4.831122522e-23
-8.917824065e-23
-4.630492283e-23
-4.427048188e-23
-4.498583126e-23
-4.434871002e-23
-8.654717042e-08
-1.44345764e-07
-3.963874938e-08
-1.001004916e-07
-1.031248217e-08
-4.58228267e-08
1.127587796e-09
-1.216443713e-08
3.704397548e-09
2.667187516e-09
1.301339174e-09
1.361962939e-08
-9.742780441e-10
1.672841027e-08
1.870926374e-17
2.11492988e-10
-8.95831735e-21
8.312772868e-25
-8.878434194e-21
-1.558561555e-22
-8.722827951e-21
-3.056082322e-22
-8.496944646e-21
-4.442751646e-22
-8.208701033e-21
-5.675077441e-22
-7.867679898e-21
-6.721422194e-22
-7.48441334e-21
-7.562998669e-22
-7.069719015e-21
-8.193535364e-22
-6.634126573e-21
-8.617812846e-22
-6.187425605e-21
-8.849468083e-22
-5.738347733e-21
-8.908487998e-22
-5.294378245e-21
-8.818741266e-22
-4.861680664e-21
-8.605790576e-22
-4.44511137e-21
-8.295119687e-22
-4.048299697e-21
-7.910819518e-22
-3.673770574e-21
-7.474713125e-22
-3.323090189e-21
-7.005860573e-22
-2.997019404e-21
-6.520367113e-22
-2.695663802e-21
-6.031415666e-22
-2.418613031e-21
-5.549451672e-22
-2.165065104e-21
-5.082460223e-22
-1.933933712e-21
-4.63628868e-22
-1.723938223e-21
-4.214980697e-22
-1.533677191e-21
-3.821098506e-22
-1.361686833e-21
-3.456019188e-22
-1.206486291e-21
-3.120197313e-22
-1.066611569e-21
-2.813391122e-22
-9.406400198e-22
-2.534852654e-22
-8.272070866e-22
-2.283484214e-22
-7.250168194e-22
-2.05796468e-22
-6.328474856e-22
-1.856849615e-22
-5.495533756e-22
-1.678649217e-22
-4.740637145e-22
-1.521887897e-22
-4.053794162e-22
-1.385148959e-22
-3.425682624e-22
-1.267107412e-22
-2.847589613e-22
-1.166553524e-22
-2.311344353e-22
-1.082409322e-22
-1.809246079e-22
-1.013739897e-22
-1.33398939e-22
-9.597609993e-23
-8.785912297e-23
-9.198438391e-23
-4.363333244e-23
-8.935153817e-23
-8.804380535e-23
-1.175152873e-07
-1.638514294e-07
-7.322595016e-08
-1.443898288e-07
-3.271786736e-08
-8.63309095e-08
-1.3361184e-08
-3.152112046e-08
-9.738089163e-09
-9.559073114e-10
-6.12004017e-09
1.000158043e-08
-9.435840054e-10
1.155195415e-08
8.856576496e-18
-7.32091015e-10
-9.113625435e-21
-3.168143244e-24
-9.028148652e-21
-2.413374952e-22
-8.861473123e-21
-4.722934721e-22
-8.620161416e-21
-6.856017674e-22
-8.313326119e-21
-8.743628981e-22
-7.951834409e-21
-1.033658669e-21
-7.547469395e-21
-1.160694448e-21
-7.112153575e-21
-1.254703693e-21
-6.657302083e-21
-1.316671815e-21
-6.193339523e-21
-1.348953033e-21
-5.729385834e-21
-1.354850696e-21
-5.273095912e-21
-1.338216707e-21
-4.830625616e-21
-1.303106361e-21
-4.406692261e-21
-1.253506576e-21
-4.004698586e-21
-1.19314101e-21
-3.62689337e-21
-1.125345922e-21
-3.274547435e-21
-1.053005272e-21
-2.948129482e-21
-9.785316983e-22
-2.647471396e-21
-9.038803067e-22
-2.371916811e-21
-8.305838869e-22
-2.120449973e-21
-7.598003311e-22
-1.891804196e-21
-6.923653071e-22
-1.684550694e-21
-6.288452763e-22
-1.497169488e-21
-5.695876516e-22
-1.328104526e-21
-5.147662123e-22
-1.175805299e-21
-4.644208735e-22
-1.038757174e-21
-4.184915797e-22
-9.155025165e-22
-3.768465366e-22
-8.04654412e-22
-3.393052525e-22
-7.049045691e-22
-3.056569936e-22
-6.150267089e-22
-2.756753026e-22
-5.33876536e-22
-2.491292162e-22
-4.603891589e-22
-2.257917717e-22
-3.935746573e-22
-2.054463286e-22
-3.325123351e-22
-1.878911641e-22
-2.763440742e-22
-1.729427273e-22
-2.242671011e-22
-1.60437877e-22
-1.75526404e-22
-1.50235361e-22
-1.294069866e-22
-1.422167394e-22
-8.522610833e-23
-1.362868773e-22
-4.23254715e-23
-1.323740262e-22
-1.304294495e-22
-1.305872359e-07
-1.623345113e-07
-1.006391744e-07
-1.743378903e-07
-5.53447259e-08
-1.316253581e-07
-2.0031866e-08
-6.683398038e-08
-9.356811724e-09
-1.163096162e-08
-5.440658272e-09
6.085426957e-09
7.868417846e-12
6.10342747e-09
-8.829471442e-18
-7.242225954e-10
-9.353743037e-21
-4.026174637e-24
-9.259065727e-21
-3.360192911e-22
-9.074746951e-21
-6.56621785e-22
-8.808897967e-21
-9.514653893e-22
-8.472607918e-21
-1.210672473e-21
-8.078866349e-21
-1.427424577e-21
-7.641483555e-21
-1.598106342e-21
-7.174133453e-21
-1.722087599e-21
-6.689599801e-21
-1.801243907e-21
-6.19925643e-21
-1.839339406e-21
-5.712772108e-21
-1.8413825e-21
-5.23800549e-21
-1.813035196e-21
-4.78104444e-21
-1.760123573e-21
-4.34634337e-21
-1.688267992e-21
-3.936917913e-21
-1.602630888e-21
-3.554564781e-21
-1.50776743e-21
-3.200083635e-21
-1.407558627e-21
-2.873485754e-21
-1.305205491e-21
-2.574180766e-21
-1.203264776e-21
-2.301137434e-21
-1.103710133e-21
-2.053017782e-21
-1.008006188e-21
-1.828285903e-21
-9.171865379e-22
-1.625293939e-21
-8.319295934e-22
-1.442348249e-21
-7.526285455e-22
-1.277758888e-21
-6.794534771e-22
-1.129875348e-21
-6.124048661e-22
-9.971112298e-22
-5.513585439e-22
-8.779601794e-22
-4.961026735e-22
-7.710050215e-22
-4.46367582e-22
-6.749217239e-22
-4.018493924e-22
-5.884794884e-22
-3.622284135e-22
-5.105380088e-22
-3.2718319e-22
-4.400427077e-22
-2.964010308e-22
-3.760185753e-22
-2.695857277e-22
-3.175630829e-22
-2.464630774e-22
-2.638385179e-22
-2.267847134e-22
-2.140639931e-22
-2.103306694e-22
-1.675073069e-22
-1.969110081e-22
-1.234767658e-22
-1.863667814e-22
-8.131301362e-23
-1.785705171e-22
-4.038077247e-23
-1.734263873e-22
-1.70870256e-22
-1.253575201e-07
-1.427688345e-07
-1.169504997e-07
-1.827449107e-07
-7.895699857e-08
-1.696188592e-07
-3.249054779e-08
-1.133004312e-07
-5.406250607e-09
-3.871525884e-08
-2.114287136e-09
2.793463452e-09
1.327204895e-10
3.856419839e-09
-1.15535294e-17
-5.915021114e-10
-9.687703439e-21
-3.708521272e-24
-9.579613806e-21
-4.441134082e-22
-9.369541214e-21
-8.667039023e-22
-9.068070971e-21
-1.252950252e-21
-8.689341944e-21
-1.589421002e-21
-8.249544951e-21
-1.867245881e-21
-7.76547417e-21
-2.082206191e-21
-7.253308559e-21
-2.234286976e-21
-6.727720319e-21
-2.326870545e-21
-6.201327812e-21
-2.365774869e-21
-5.684453916e-21
-2.358303827e-21
-5.185121953e-21
-2.312418974e-21
-4.70921466e-21
-2.236086967e-21
-4.260729034e-21
-2.1368139e-21
-3.842073854e-21
-2.021350419e-21
-3.454371979e-21
-1.895537606e-21
-3.09774328e-21
-1.764259456e-21
-2.771554906e-21
-1.631469694e-21
-2.474633446e-21
-1.500265631e-21
-2.205438657e-21
-1.372987744e-21
-1.962201525e-21
-1.251329431e-21
-1.743030926e-21
-1.136446391e-21
-1.545993743e-21
-1.029059028e-21
-1.369173184e-21
-9.295442032e-22
-1.210709657e-21
-8.380148001e-22
-1.068827967e-21
-7.543868977e-22
-9.418540121e-22
-6.784352317e-22
-8.282235695e-22
-6.098380861e-22
-7.264852343e-22
-5.482129696e-22
-6.352991384e-22
-4.931444679e-22
-5.534327022e-22
-4.442056014e-22
-4.797543691e-22
-4.009738915e-22
-4.132260341e-22
-3.630431958e-22
-3.528946836e-22
-3.300322152e-22
-2.978836195e-22
-3.01590431e-22
-2.473835244e-22
-2.774020965e-22
-2.006435374e-22
-2.571887893e-22
-1.569624431e-22
-2.407109267e-22
-1.156800225e-22
-2.277685646e-22
-7.616856327e-23
-2.182017239e-22
-3.782448155e-23
-2.118904481e-22
-2.087547709e-22
-1.036035213e-07
-1.103564969e-07
-1.180353073e-07
-1.683131246e-07
-9.769589184e-08
-1.899582747e-07
-5.347011573e-08
-1.575262074e-07
-1.069719412e-08
-8.148818048e-08
1.519820832e-09
-9.423551528e-09
-1.021368282e-10
5.478377488e-09
2.561427632e-18
-6.936389472e-10
-1.012930844e-20
-3.579270445e-24
-1.000212574e-20
-5.713005914e-22
-9.755720462e-21
-1.113118711e-21
-9.404497384e-21
-1.604187955e-21
-8.967145724e-21
-2.02679217e-21
-8.464505164e-21
-2.36991076e-21
-7.917571836e-21
-2.629168595e-21
-7.345921183e-21
-2.805971405e-21
-6.76666113e-21
-2.906169006e-21
-6.193896548e-21
-2.938582418e-21
-5.638608871e-21
-2.913638946e-21
-5.108827458e-21
-2.842252215e-21
-4.609975331e-21
-2.734995208e-21
-4.145294748e-21
-2.601554779e-21
-3.716285454e-21
-2.450424078e-21
-3.323113594e-21
-2.288777784e-21
-2.964969002e-21
-2.122476193e-21
-2.640362546e-21
-1.956151996e-21
-2.347364026e-21
-1.793343562e-21
-2.083786123e-21
-1.636648487e-21
-1.847322089e-21
-1.487879592e-21
-1.635645449e-21
-1.348212304e-21
-1.446479484e-21
-1.218317261e-21
-1.277643363e-21
-1.09847544e-21
-1.12708063e-21
-9.886753464e-22
-9.92874694e-22
-8.886931927e-22
-8.732549554e-22
-7.981577204e-22
-7.665963771e-22
-7.166016517e-22
-6.714145988e-22
-6.435018173e-22
-5.863581604e-22
-5.783099029e-22
-5.101989624e-22
-5.204755678e-22
-4.418217677e-22
-4.69463471e-22
-3.802133016e-22
-4.247655081e-22
-3.244513212e-22
-3.859093484e-22
-2.736938934e-22
-3.524641636e-22
-2.271690196e-22
-3.240442731e-22
-1.841646754e-22
-3.003112805e-22
-1.440192812e-22
-2.809751586e-22
-1.061125823e-22
-2.657946386e-22
-6.985688768e-23
-2.545771778e-22
-3.468860481e-23
-2.47178721e-22
-2.43503422e-22
-7.181827501e-08
-7.220530016e-08
-1.046612266e-07
-1.354701731e-07
-1.058189969e-07
-1.888005044e-07
-7.358501059e-08
-1.897601937e-07
-2.672908822e-08
-1.283441029e-07
6.784181989e-10
-3.683105796e-08
-3.050465007e-10
6.461842174e-09
1.52736981e-17
-9.986854466e-10
-1.069844613e-20
-5.532300058e-24
-1.054384234e-20
-7.259088691e-22
-1.024670122e-20
-1.410269369e-21
-9.82704651e-21
-2.023857291e-21
-9.310242422e-21
-2.543615774e-21
-8.723769989e-21
-2.956407522e-21
-8.094403847e-21
-3.258563825e-21
-7.446162839e-21
-3.454246201e-21
-6.799126633e-21
-3.553243636e-21
-6.169007606e-21
-3.56874443e-21
-5.567274974e-21
-3.515419039e-21
-5.001618862e-21
-3.407960175e-21
-4.476577351e-21
-3.260092855e-21
-3.99419991e-21
-3.083992538e-21
-3.554668454e-21
-2.890019923e-21
-3.156835164e-21
-2.686679416e-21
-2.798662496e-21
-2.480721032e-21
-2.4775671e-21
-2.277323262e-21
-2.190678016e-21
-2.080312084e-21
-1.935023107e-21
-1.892386263e-21
-1.707658157e-21
-1.715330697e-21
-1.505751813e-21
-1.550207947e-21
-1.326637607e-21
-1.397523765e-21
-1.167842152e-21
-1.257366041e-21
-1.027096622e-21
-1.12951872e-21
-9.023368871e-22
-1.013553316e-21
-7.916962724e-22
-9.089011154e-22
-6.934938026e-22
-8.149091391e-22
-6.06219934e-22
-7.30882786e-22
-5.285211498e-22
-6.561177144e-22
-4.59184326e-22
-5.899231906e-22
-3.971214441e-22
-5.316387684e-22
-3.413549885e-22
-4.806458404e-22
-2.910042087e-22
-4.363753112e-22
-2.452723115e-22
-3.983123957e-22
-2.034345773e-22
-3.659993398e-22
-1.648273476e-22
-3.390366863e-22
-1.288377988e-22
-3.170835736e-22
-9.489440138e-23
-2.998574392e-22
-6.245795182e-23
-2.871334141e-22
-3.10130666e-23
-2.787436234e-22
-2.745765499e-22
-3.859808339e-08
-3.626266131e-08
-8.145837751e-08
-9.260987905e-08
-1.030838033e-07
-1.671750786e-07
-8.836891847e-08
-2.044750785e-07
-4.630280004e-08
-1.704102213e-07
-6.750283287e-09
-7.638357472e-08
-6.733793815e-10
3.849382638e-10
1.063873382e-17
-1.672064821e-09
-1.142173965e-20
-1.116493434e-23
-1.122806281e-20
-9.195901929e-22
-1.086017397e-20
-1.778167752e-21
-1.034673931e-20
-2.53730658e-21
-9.723015789e-21
-3.167358824e-21
-9.025947033e-21
-3.653500616e-21
-8.290135094e-21
-3.994404864e-21
-7.545226144e-21
-4.199188954e-21
-6.814700718e-21
-4.283807501e-21
-6.115755629e-21
-4.26773252e-21
-5.459884699e-21
-4.171337448e-21
-4.853812394e-21
-4.014084347e-21
-4.300528822e-21
-3.813432584e-21
-3.800269807e-21
-3.584311894e-21
-3.351361692e-21
-3.33899245e-21
-2.95090267e-21
-3.087206804e-21
-2.595283856e-21
-2.836412042e-21
-2.280569418e-21
-2.592113596e-21
-2.002761122e-21
-2.358199845e-21
-1.757972856e-21
-2.137257424e-21
-1.542537939e-21
-1.930851799e-21
-1.353068074e-21
-1.739767141e-21
-1.186478806e-21
-1.56420536e-21
-1.039992691e-21
-1.403947333e-21
-9.111283778e-22
-1.258480907e-21
-7.976814235e-22
-1.127100691e-21
-6.97700825e-22
-1.008984526e-21
-6.094639295e-22
-9.032510844e-22
-5.314514103e-22
-8.090024377e-22
-4.62323325e-22
-7.253548595e-22
-4.008968119e-22
-6.514605352e-22
-3.461256716e-22
-5.865223566e-22
-2.970818862e-22
-5.29803535e-22
-2.529390052e-22
-4.806334076e-22
-2.129572588e-22
-4.38410509e-22
-1.7647022e-22
-4.026037428e-22
-1.428728225e-22
-3.727522914e-22
-1.116105404e-22
-3.484647531e-22
-8.21695371e-23
-3.294178761e-22
-5.406760369e-23
-3.153551643e-22
-2.684571506e-23
-3.060855589e-22
-3.014823418e-22
-1.075613621e-08
-1.169141939e-08
-5.404934703e-08
-4.931666825e-08
-9.152903686e-08
-1.296953889e-07
-9.607971605e-08
-1.999243994e-07
-6.364829307e-08
-2.028416443e-07
-1.814057716e-08
-1.218912906e-07
-4.515120678e-10
-1.730412682e-08
-5.942783158e-18
-2.123576882e-09
-1.233610104e-20
-1.667817932e-23
-1.208642402e-20
-1.169271707e-21
-1.161916463e-20
-2.245436678e-21
-1.097671743e-20
-3.179768426e-21
-1.020915087e-20
-3.934944915e-21
-9.366896759e-21
-4.495779072e-21
-8.494998843e-21
-4.866331892e-21
-7.629941953e-21
-5.064279661e-21
-6.798727525e-21
-5.115060384e-21
-6.019457808e-21
-5.047045254e-21
-5.302718854e-21
-4.8881239e-21
-4.653235254e-21
-4.663619835e-21
-4.071469467e-21
-4.395254549e-21
-3.554999018e-21
-4.100842706e-21
-3.09961333e-21
-3.794442574e-21
-2.700135435e-21
-3.48675309e-21
-2.351004855e-21
-3.185614843e-21
-2.046668604e-21
-2.89652577e-21
-1.781826533e-21
-2.623121408e-21
-1.551571156e-21
-2.367595724e-21
-1.351454294e-21
-2.131054873e-21
-1.1775052e-21
-1.913805594e-21
-1.026218222e-21
-1.715584696e-21
-8.945227415e-22
-1.53573802e-21
-7.797440535e-22
-1.373357501e-21
-6.795608546e-22
-1.227384342e-21
-5.919628959e-22
-1.096685329e-21
-5.152108662e-22
-9.801081965e-22
-4.477995946e-22
-8.765208745e-22
-3.884250166e-22
-7.848385301e-22
-3.359549506e-22
-7.040414658e-22
-2.894034979e-22
-6.331862904e-22
-2.479087523e-22
-5.714122228e-22
-2.107134519e-22
-5.179439563e-22
-1.771481892e-22
-4.720921713e-22
-1.466168121e-22
-4.332525167e-22
-1.185836684e-22
-4.009036748e-22
-9.256238127e-23
-3.746049694e-22
-6.810587023e-23
-3.539938524e-22
-4.479736486e-23
-3.387835177e-22
-2.224218229e-23
-3.287608193e-22
-3.237846169e-22
5.308616782e-09
-1.441117968e-09
-2.790299952e-08
-1.610505194e-08
-7.356190942e-08
-8.403647899e-08
-9.656537099e-08
-1.769209378e-07
-7.815785302e-08
-2.212491623e-07
-3.159216455e-08
-1.684569791e-07
2.81884255e-10
-4.91781756e-08
-1.549053854e-17
-1.841692606e-09
-1.349735732e-20
-3.872597399e-23
-1.316227317e-20
-1.504360352e-21
-1.255330982e-20
-2.854409571e-21
-1.173181793e-20
-4.001274964e-21
-1.077000517e-20
-4.896777205e-21
-9.737537777e-21
-5.528270825e-21
-8.693073635e-21
-5.910825157e-21
-7.680864398e-21
-6.076522728e-21
-6.730851744e-21
-6.065111508e-21
-5.860663006e-21
-5.917277028e-21
-5.078323355e-21
-5.670511067e-21
-4.384959018e-21
-5.357036078e-21
-3.777127905e-21
-5.003141861e-21
-3.248652377e-21
-4.629378619e-21
-2.791963051e-21
-4.251196359e-21
-2.399024682e-21
-3.879759873e-21
-2.061933965e-21
-3.522777807e-21
-1.773275218e-21
-3.185260468e-21
-1.526306385e-21
-2.87016976e-21
-1.315031845e-21
-2.578953215e-21
-1.134203704e-21
-2.311969255e-21
-9.792810357e-22
-2.068817651e-21
-8.463670099e-22
-1.848591109e-21
-7.32136932e-22
-1.650063336e-21
-6.337652313e-22
-1.471827139e-21
-5.488560838e-22
-1.312393973e-21
-4.753801052e-22
-1.170264184e-21
-4.116181222e-22
-1.043975294e-21
-3.561121535e-22
-9.321340412e-22
-3.076232369e-22
-8.334365725e-22
-2.650954727e-22
-7.466801277e-22
-2.276255549e-22
-6.707687224e-22
-1.944370402e-22
-6.047147128e-22
-1.64858646e-22
-5.476376319e-22
-1.383059287e-22
-4.987613213e-22
-1.142657675e-22
-4.574101075e-22
-9.228315073e-23
-4.230045639e-22
-7.194983056e-23
-3.950572511e-22
-5.289447011e-23
-3.731687101e-22
-3.477396095e-23
-3.570239067e-22
-1.726562856e-23
-3.463892611e-22
-3.411103542e-22
1.175366702e-08
1.116400248e-09
-6.353379398e-09
2.001994504e-09
-5.097716414e-08
-3.941269426e-08
-8.958982306e-08
-1.383082789e-07
-8.912068223e-08
-2.217183031e-07
-4.734970982e-08
-2.102279515e-07
-2.009433046e-09
-9.451845235e-08
-1.374226254e-17
-3.851125597e-09
-1.497442093e-20
-1.767565118e-22
-1.451188244e-20
-1.966903334e-21
-1.369993446e-20
-3.666367094e-21
-1.262725676e-20
-5.07396732e-21
-1.140157383e-20
-6.122479673e-21
-1.012025222e-20
-6.809616799e-21
-8.858969705e-21
-7.172136809e-21
-7.669656433e-21
-7.265869842e-21
-6.583204611e-21
-7.151601814e-21
-5.614058091e-21
-6.886466599e-21
-4.764979781e-21
-6.51963691e-21
-4.031167538e-21
-6.090900247e-21
-3.403441912e-21
-5.630923705e-21
-2.870525946e-21
-5.162354992e-21
-2.420565117e-21
-4.701221669e-21
-2.042067678e-21
-4.258325751e-21
-1.724431446e-21
-3.840486311e-21
-1.458191757e-21
-3.451576131e-21
-1.235091641e-21
-3.093349422e-21
-1.048045891e-21
-2.766081944e-21
-8.9104757e-22
-2.469053847e-21
-7.590483681e-22
-2.20090627e-21
-6.478322054e-22
-1.959899689e-21
-5.538932964e-22
-1.744097513e-21
-4.743245708e-22
-1.551493833e-21
-4.067189859e-22
-1.380100073e-21
-3.490842516e-22
-1.228001827e-21
-2.997703519e-22
-1.093394341e-21
-2.57408673e-22
-9.746029508e-22
-2.208613139e-22
-8.700930901e-22
-1.891791306e-22
-7.784732417e-22
-1.615671442e-22
-6.984932561e-22
-1.373560796e-22
-6.290397858e-22
-1.15978958e-22
-5.691300678e-22
-9.695181847e-23
-5.179049265e-22
-7.985778735e-23
-4.746216009e-22
-6.433384111e-23
-4.386468152e-22
-5.005971475e-23
-4.094503714e-22
-3.674849912e-23
-3.865994552e-22
-2.413854344e-23
-3.697537742e-22
-1.198633764e-23
-3.586616081e-22
-3.531568165e-22
1.522800149e-08
1.714278514e-09
9.018733782e-09
8.211262216e-09
-2.536570943e-08
-5.028251032e-09
-7.473988452e-08
-8.893410375e-08
-9.528598753e-08
-2.011722e-07
-6.540002301e-08
-2.40113916e-07
-1.07836303e-08
-1.49134845e-07
-1.429791615e-17
-1.463475584e-08
-1.678883206e-20
-2.95911879e-23
-1.621042237e-20
-2.545317514e-21
-1.510719748e-20
-4.769601536e-21
-1.3675757e-20
-6.505422456e-21
-1.208889416e-20
-7.709362057e-21
-1.048305092e-20
-8.415484413e-21
-8.953006344e-21
-8.702210528e-21
-7.555673872e-21
-8.663236167e-21
-6.318315145e-21
-8.388999039e-21
-5.247427287e-21
-7.957397524e-21
-4.336396437e-21
-7.430715311e-21
-3.571304238e-21
-6.856044391e-21
-2.934953351e-21
-6.267330831e-21
-2.40944665e-21
-5.687922121e-21
-1.977703312e-21
-5.13302951e-21
-1.624247618e-21
-4.611849907e-21
-1.335530052e-21
-4.129276173e-21
-1.099966439e-21
-3.687215745e-21
-9.078205742e-22
-3.285574858e-21
-7.510110091e-22
-2.922974514e-21
-6.228913035e-22
-2.59725985e-21
-5.180321108e-22
-2.305854909e-21
-4.320200051e-22
-2.046004242e-21
-3.612796774e-22
-1.814933139e-21
-3.029212432e-22
-1.609950266e-21
-2.546117196e-22
-1.428510143e-21
-2.14468395e-22
-1.268248092e-21
-1.809712909e-22
-1.126996624e-21
-1.528918568e-22
-1.002789647e-21
-1.292352164e-22
-8.938589212e-22
-1.091935798e-22
-7.986258414e-22
-9.210876132e-23
-7.156906543e-22
-7.744206683e-23
-6.438205213e-22
-6.475010376e-23
-5.819373779e-22
-5.366532733e-23
-5.29106201e-22
-4.388035125e-23
-4.845240718e-22
-3.513523379e-23
-4.475102699e-22
-2.720709747e-23
-4.174975338e-22
-1.990155983e-23
-3.940245542e-22
-1.304554684e-23
-3.767297307e-22
-6.481133255e-24
-3.653461944e-22
-3.596980899e-22
1.979609285e-08
2.274315094e-09
1.907442379e-08
8.93293127e-09
3.887575221e-10
1.365741526e-08
-5.153628885e-08
-3.700905733e-08
-9.418869038e-08
-1.585197984e-07
-8.386879263e-08
-2.504338136e-07
-2.679808445e-08
-2.062055531e-07
-2.977490216e-17
-4.143284025e-08
-1.937568811e-20
-2.465713401e-22
-1.843414734e-20
-3.486862786e-21
-1.684280128e-20
-6.360957138e-21
-1.487986596e-20
-8.468372443e-21
-1.279540772e-20
-9.793839852e-21
-1.077024487e-20
-1.044067164e-20
-8.914483783e-21
-1.055800077e-20
-7.281826034e-21
-1.029592778e-20
-5.887024965e-21
-9.783838618e-21
-4.720980518e-21
-9.123485052e-21
-3.761895263e-21
-8.389848133e-21
-2.982707446e-21
-7.63528417e-21
-2.355620732e-21
-6.894473802e-21
-1.854600055e-21
-6.189003245e-21
-1.456548202e-21
-5.531145888e-21
-1.141683445e-21
-4.926783147e-21
-8.934691749e-22
-4.377562761e-21
-6.983186729e-22
-3.882442272e-21
-5.452094687e-22
-3.438763659e-21
-4.252834755e-22
-3.042983539e-21
-3.314725934e-22
-2.691157056e-21
-2.581675772e-22
-2.379249398e-21
-2.009354517e-22
-2.103328842e-21
-1.562840811e-22
-1.859679837e-21
-1.214693013e-22
-1.644863073e-21
-9.433883448e-23
-1.455741186e-21
-7.320709969e-23
-1.289482797e-21
-5.67554753e-23
-1.143553458e-21
-4.395323962e-23
-1.015699177e-21
-3.399513964e-23
-9.039262432e-22
-2.625222998e-23
-8.064797457e-22
-2.023323925e-23
-7.218222564e-22
-1.555424943e-23
-6.486135838e-22
-1.191491323e-23
-5.856920928e-22
-9.079795275e-24
-5.320578488e-22
-6.863713755e-24
-4.868576797e-22
-5.12019164e-24
-4.493721609e-22
-3.732310294e-24
-4.190044726e-22
-2.605402296e-24
-3.952710549e-22
-1.661131417e-24
-3.777939762e-22
-8.325922733e-25
-3.662949371e-22
-3.605908374e-22
2.54061577e-08
2.890563174e-09
2.548492447e-08
8.854164513e-09
2.062869912e-08
1.851364065e-08
-2.06788426e-08
4.298484439e-09
-8.189363756e-08
-9.730500342e-08
-9.862712705e-08
-2.337003241e-07
-4.837999241e-08
-2.564526877e-07
-4.710858439e-17
-8.981283271e-08
-2.279413345e-20
-6.140487674e-22
-2.130741516e-20
-4.973585573e-21
-1.895013875e-20
-8.718243105e-21
-1.620584786e-20
-1.1212678e-20
-1.344298375e-20
-1.255672352e-20
-1.088832369e-20
-1.299535608e-20
-8.653057336e-21
-1.279329629e-20
-6.770245496e-21
-1.21787735e-20
-5.2270463e-21
-1.132707634e-20
-3.987605433e-21
-1.036296901e-20
-3.007504774e-21
-9.369996374e-21
-2.242005079e-21
-8.400835843e-21
-1.650211601e-21
-7.486323556e-21
-1.196772156e-21
-6.642503156e-21
-8.521937382e-22
-5.87578885e-21
-5.924578773e-22
-5.186587513e-21
-3.983354189e-22
-4.57175756e-21
-2.546223619e-22
-4.026231376e-21
-1.494096384e-22
-3.544056003e-21
-7.343683057e-23
-3.119039402e-21
-1.954528537e-23
-2.745134951e-21
1.777154934e-23
-2.416655732e-21
4.273074395e-23
-2.128380538e-21
5.854836456e-23
-1.875592812e-21
6.766673903e-23
-1.654079504e-21
7.193222325e-23
-1.460107275e-21
7.273350612e-23
-1.290387079e-21
7.110877235e-23
-1.142033964e-21
6.782846652e-23
-1.012526194e-21
6.345904328e-23
-8.99666072e-22
5.841195871e-23
-8.015436859e-22
5.298124031e-23
-7.165041798e-22
4.737224011e-23
-6.431186867e-22
4.17235957e-23
-5.801588576e-22
3.612397017e-23
-5.265747836e-22
3.062478851e-23
-4.814760549e-22
2.52499139e-23
-4.441156855e-22
2.000299671e-23
-4.138766432e-22
1.487306753e-23
-3.902607485e-22
9.838822979e-24
-3.728797363e-22
4.871961554e-24
-3.614483091e-22
-3.557790453e-22
3.18363389e-08
3.130941137e-09
3.154263285e-08
9.147870582e-09
3.293411834e-08
1.71221552e-08
1.22922856e-08
2.494031723e-08
-5.430356484e-08
-3.070915293e-08
-1.027953072e-07
-1.852085817e-07
-7.12414459e-08
-2.88006549e-07
-4.142329925e-17
-1.610542787e-07
-2.752871524e-20
-1.223129374e-21
-2.505131748e-20
-7.450987833e-21
-2.144506838e-20
-1.232450176e-20
-1.755111455e-20
-1.51066465e-20
-1.388293799e-20
-1.622491965e-20
-1.068740425e-20
-1.619091422e-20
-8.039410776e-21
-1.544131893e-20
-5.919172216e-21
-1.429904594e-20
-4.263356849e-21
-1.298293024e-20
-2.994896345e-21
-1.163147262e-20
-2.038498567e-21
-1.032644175e-20
-1.327573126e-21
-9.111813278e-21
-8.0642336e-22
-8.007529614e-21
-4.300599503e-22
-7.01892705e-21
-1.629767414e-22
-6.142936623e-21
2.239737754e-23
-5.372030156e-21
1.472205035e-22
-4.696653048e-21
2.275839517e-22
-4.106670893e-21
2.756371805e-22
-3.592188875e-21
3.004960434e-22
-3.143981344e-21
3.089600312e-22
-2.753685313e-21
3.060703188e-22
-2.413855544e-21
2.955395297e-22
-2.117942276e-21
2.800803349e-22
-1.860228998e-21
2.616554094e-22
-1.635752661e-21
2.416668403e-22
-1.440219337e-21
2.210992276e-22
-1.269922493e-21
2.006275278e-22
-1.121667531e-21
1.806981365e-22
-9.927041547e-22
1.61589702e-22
-8.806669179e-22
1.434586077e-22
-7.835236449e-22
1.263728739e-22
-6.995311166e-22
1.103373177e-22
-6.271972625e-22
9.531212084e-23
-5.652490989e-22
8.122643303e-23
-5.126056851e-22
6.798824246e-23
-4.683554501e-22
5.549144659e-23
-4.317373177e-22
4.362083233e-23
-4.021251454e-22
3.225550591e-23
-3.790150735e-22
2.127118706e-23
-3.620154505e-22
1.054168976e-23
-3.508390736e-22
-3.452975383e-22
3.832960363e-08
3.059367162e-09
3.816710414e-08
9.310370098e-09
4.002948273e-08
1.525977666e-08
3.813198899e-08
2.683781103e-08
-1.105286989e-08
1.847570596e-08
-8.847090597e-08
-1.077905457e-07
-8.884609596e-08
-2.87631359e-07
-1.824847782e-17
-2.499003748e-07
-3.443957588e-20
-2.722796587e-21
-2.992525758e-20
-1.196531063e-20
-2.422934115e-20
-1.802042775e-20
-1.867194058e-20
-2.066406173e-20
-1.385111425e-20
-2.104576556e-20
-9.939423254e-21
-2.010262963e-20
-6.898232258e-21
-1.84825391e-20
-4.603749438e-21
-1.659356265e-20
-2.912308463e-21
-1.467440976e-20
-1.690085652e-21
-1.285373855e-20
-8.239700333e-22
-1.119260498e-20
-2.233163031e-22
-9.712519016e-21
1.821944371e-22
-8.413096661e-21
4.459680402e-22
-7.282761153e-21
6.079774446e-22
-6.305010608e-21
6.978251207e-22
-5.461946375e-21
7.372521052e-22
-4.736152412e-21
7.421120793e-22
-4.111606956e-21
7.23886512e-22
-3.574042971e-21
6.908292902e-22
-3.111007223e-21
6.488225411e-22
-2.71176496e-21
6.020121626e-22
-2.367134712e-21
5.53277618e-22
-2.069300282e-21
5.045781371e-22
-1.811624921e-21
4.57207262e-22
-1.588479893e-21
4.119796545e-22
-1.395092387e-21
3.693679391e-22
-1.22741383e-21
3.296027288e-22
-1.082007613e-21
2.927455324e-22
-9.55954336e-22
2.587416894e-22
-8.467723817e-22
2.27458595e-22
-7.523516305e-22
1.987130917e-22
-6.708983105e-22
1.722908851e-22
-6.008892148e-22
1.479600916e-22
-5.410337705e-22
1.254804726e-22
-4.902426823e-22
1.04609505e-22
-4.476020952e-22
8.510613765e-23
-4.123524053e-22
6.673286215e-23
-3.838710133e-22
4.925656461e-23
-3.616584541e-22
3.244850585e-23
-3.453274515e-22
1.608369142e-23
-3.345945473e-22
-3.292740419e-22
4.458846057e-08
2.937787253e-09
4.493972348e-08
8.95910721e-09
4.539838206e-08
1.480111811e-08
5.018865033e-08
2.20475428e-08
3.274572676e-08
3.591862954e-08
-5.145681735e-08
-2.358800162e-08
-9.404921437e-08
-2.45038962e-07
7.65040158e-18
-3.439495893e-07
-4.478479806e-20
-7.643498706e-21
-3.598533775e-20
-2.076477544e-20
-2.687870944e-20
-2.712706563e-20
-1.905832619e-20
-2.848445966e-20
-1.291121798e-20
-2.719289335e-20
-8.321374309e-21
-2.469249771e-20
-5.010450578e-21
-2.179349202e-20
-2.68524078e-21
-1.891880635e-20
-1.091943202e-21
-1.626774589e-20
-2.906007185e-23
-1.391666481e-20
6.561175564e-22
-1.187783023e-20
1.076163748e-21
-1.013261723e-20
1.312612333e-21
-8.649601568e-21
1.423808e-21
-7.394017335e-21
1.451128707e-21
-6.332395911e-21
1.423699158e-21
-5.434585385e-21
1.361868874e-21
-4.674394525e-21
1.279738314e-21
-4.029552503e-21
1.186975922e-21
-3.481360261e-21
1.090117452e-21
-3.014231872e-21
9.934918633e-22
-2.615225787e-21
8.998797712e-22
-2.273612187e-21
8.109811179e-22
-1.9804942e-21
7.27747026e-22
-1.728486255e-21
6.506150081e-22
-1.511446004e-21
5.796753915e-22
-1.324253449e-21
5.147887508e-22
-1.162630264e-21
4.55668412e-22
-1.02299259e-21
4.019380356e-22
-9.02331361e-22
3.531714081e-22
-7.981150849e-22
3.089195298e-22
-7.082108564e-22
2.68728639e-22
-6.308201413e-22
2.32151775e-22
-5.644265341e-22
1.987557483e-22
-5.077532334e-22
1.68124857e-22
-4.597284318e-22
1.398623074e-22
-4.19457183e-22
1.135900265e-22
-3.86198604e-22
8.894735735e-23
-3.593475119e-22
6.558898428e-23
-3.384197836e-22
4.318233836e-23
-3.230408895e-22
2.140465619e-23
-3.129371774e-22
-3.079295915e-22
5.058358323e-08
2.803727881e-09
5.126434813e-08
8.278342311e-09
5.183081636e-08
1.423464989e-08
5.554492601e-08
1.833343317e-08
6.141379211e-08
3.004976343e-08
4.529132728e-09
3.329665779e-08
-8.220357209e-08
-1.583062572e-07
2.950385162e-17
-4.261531613e-07
-5.951633265e-20
-2.40777066e-20
-4.236461742e-20
-3.791649516e-20
-2.824788131e-20
-4.12438113e-20
-1.777396566e-20
-3.895838999e-20
-1.041487861e-20
-3.455199999e-20
-5.424487008e-21
-2.968291372e-20
-2.136763854e-21
-2.508124436e-20
-3.456356667e-23
-2.102104055e-20
1.259075655e-21
-1.756142367e-20
2.009867118e-21
-1.466749941e-20
2.40148737e-21
-1.226949811e-20
2.559353057e-21
-1.029053495e-20
2.568363803e-21
-8.658668646e-21
2.48558012e-21
-7.31129418e-21
2.349070149e-21
-6.19595055e-21
2.184001348e-21
-5.269585157e-21
2.006804375e-21
-4.497269964e-21
1.828008475e-21
-3.850832726e-21
1.654169011e-21
-3.307600496e-21
1.48917718e-21
-2.849323177e-21
1.335149943e-21
-2.461284983e-21
1.193034682e-21
-2.131586512e-21
1.063019771e-21
-1.850571879e-21
9.448128746e-22
-1.610374805e-21