/*--------------------------------*- C++ -*----------------------------------*\
  =========                 |
  \\      /  F ield         | OpenFOAM: The Open Source CFD Toolbox
   \\    /   O peration     | Website:  https://openfoam.org
    \\  /    A nd           | Version:  6
     \\/     M anipulation  |
\*---------------------------------------------------------------------------*/
FoamFile
{
    version     2.0;
    format      ascii;
    class       volScalarField;
    location    "0.1";
    object      pVap;
}
// * * * * * * * * * * * * * * * * * * * * * * * * * * * * * * * * * * * * * //

dimensions      [1 -1 -2 0 0 0 0];

internalField   nonuniform List<scalar> 
2500
(
55293.8213
55293.59436
55293.31918
55293.10071
55292.93795
55292.80803
55292.69705
55292.62971
1.075174588
1.074747361
1.074506896
1.074376679
1.074310014
1.074277919
1.074263325
1.074256989
1.074254329
1.074253235
1.074252789
1.074252608
1.074252535
1.074252507
1.074252495
1.074252491
1.07425249
1.074252489
1.074252489
1.074252489
1.074252489
1.074252489
1.074252489
1.074252489
1.074252489
1.074252489
1.074252489
1.074252489
1.074252489
1.074252489
1.074252489
1.074252489
1.074252489
1.074252489
1.074252489
1.074252489
1.074252489
1.074252489
1.074252489
1.074252489
1.074252489
1.074252489
55295.06314
55294.80404
55294.38881
55293.93441
55293.52084
55293.17809
55292.87966
55292.61805
1.076994222
1.075748749
1.075030181
1.074636482
1.074432963
1.074333795
1.074287957
1.074267629
1.074258864
1.074255147
1.074253585
1.074252934
1.074252665
1.074252557
1.074252514
1.074252498
1.074252492
1.07425249
1.074252489
1.074252489
1.074252489
1.074252489
1.074252489
1.074252489
1.074252489
1.074252489
1.074252489
1.074252489
1.074252489
1.074252489
1.074252489
1.074252489
1.074252489
1.074252489
1.074252489
1.074252489
1.074252489
1.074252489
1.074252489
1.074252489
1.074252489
1.074252489
55295.7217
55295.51026
55295.11831
55294.59325
55294.02894
55293.51913
55293.0597
55292.61471
1.078905914
1.076828544
1.075614001
1.07493997
1.074585431
1.074408309
1.074323602
1.074284378
1.074266593
1.074258638
1.07425512
1.074253588
1.074252934
1.074252663
1.074252555
1.074252513
1.074252497
1.074252492
1.07425249
1.074252489
1.074252489
1.074252489
1.074252489
1.074252489
1.074252489
1.074252489
1.074252489
1.074252489
1.074252489
1.074252489
1.074252489
1.074252489
1.074252489
1.074252489
1.074252489
1.074252489
1.074252489
1.074252489
1.074252489
1.074252489
1.074252489
1.074252489
55296.13741
55295.97545
55295.64976
55295.15275
55294.51677
55293.86811
55293.2507
55292.62101
1.081075931
1.078106422
1.076346348
1.075349637
1.074809433
1.074528026
1.074386035
1.074316046
1.074282151
1.074266009
1.074258477
1.074255053
1.074253547
1.074252908
1.074252648
1.074252547
1.074252509
1.074252496
1.074252491
1.074252489
1.074252489
1.074252489
1.074252489
1.074252489
1.074252489
1.074252489
1.074252489
1.074252489
1.074252489
1.074252489
1.074252489
1.074252489
1.074252489
1.074252489
1.074252489
1.074252489
1.074252489
1.074252489
1.074252489
1.074252489
1.074252489
1.074252489
55296.44307
55296.32438
55296.06647
55295.63493
55294.99882
55294.23172
55293.45326
55292.64165
1.083772612
1.0798105
1.077406658
1.075996448
1.075194075
1.074749624
1.074509035
1.074381536
1.074315494
1.074282209
1.07426598
1.074258365
1.07425494
1.074253467
1.074252863
1.074252626
1.074252537
1.074252505
1.074252494
1.07425249
1.074252489
1.074252489
1.074252489
1.074252489
1.074252489
1.074252489
1.074252489
1.074252489
1.074252489
1.074252489
1.074252489
1.074252489
1.074252489
1.074252489
1.074252489
1.074252489
1.074252489
1.074252489
1.074252489
1.074252489
1.074252489
1.074252489
55296.69076
55296.61085
55296.41421
55296.0493
55295.4546
55294.61184
55293.67078
55292.66596
1.087546836
1.08241655
1.079173223
1.07715858
1.075929337
1.075194071
1.074764653
1.07452111
1.074387787
1.074317731
1.074282548
1.074265708
1.074258037
1.074254712
1.07425334
1.0742528
1.074252598
1.074252525
1.074252501
1.074252492
1.07425249
1.074252489
1.074252489
1.074252489
1.074252489
1.074252489
1.074252489
1.074252489
1.074252489
1.074252489
1.074252489
1.074252489
1.074252489
1.074252489
1.074252489
1.074252489
1.074252489
1.074252489
1.074252489
1.074252489
1.074252489
1.074252489
55296.90272
55296.85902
55296.72099
55296.42079
55295.87616
55295.01099
55293.90147
55292.68614
1.093561657
1.086925647
1.082440317
1.079418971
1.077412222
1.076113221
1.075302262
1.074817869
1.074542527
1.074394053
1.074318212
1.074281523
1.074264704
1.074257388
1.074254364
1.074253175
1.074252729
1.074252569
1.074252515
1.074252497
1.074252491
1.074252489
1.074252489
1.074252489
1.074252489
1.074252489
1.074252489
1.074252489
1.074252489
1.074252489
1.074252489
1.074252489
1.074252489
1.074252489
1.074252489
1.074252489
1.074252489
1.074252489
1.074252489
1.074252489
1.074252489
1.074252489
55297.09192
55297.08112
55297.00148
55296.76994
55296.28361
55295.42492
55294.16172
55292.71264
1.10423187
1.095409248
1.088842493
1.083968754
1.080447739
1.078013884
1.076420294
1.075436748
1.074865528
1.074553321
1.074392559
1.074314444
1.074278557
1.074262938
1.074256485
1.074253949
1.074253
1.07425266
1.074252544
1.074252506
1.074252494
1.07425249
1.074252489
1.074252489
1.074252489
1.074252489
1.074252489
1.074252489
1.074252489
1.074252489
1.074252489
1.074252489
1.074252489
1.074252489
1.074252489
1.074252489
1.074252489
1.074252489
1.074252489
1.074252489
1.074252489
1.074252489
55297.27169
55297.28616
55297.26343
55297.1085
55296.69797
55295.87336
55294.49723
55292.75738
1.124497275
1.112071581
1.10166366
1.093171645
1.086613483
1.081877816
1.078690965
1.076691222
1.075518668
1.07487453
1.074542097
1.074380482
1.074306276
1.074274017
1.074260709
1.074255488
1.074253536
1.074252839
1.074252601
1.074252524
1.074252499
1.074252492
1.07425249
1.074252489
1.074252489
1.074252489
1.074252489
1.074252489
1.074252489
1.074252489
1.074252489
1.074252489
1.074252489
1.074252489
1.074252489
1.074252489
1.074252489
1.074252489
1.074252489
1.074252489
1.074252489
1.074252489
55297.45701
55297.48455
55297.51179
55297.43952
55297.12395
55296.36879
55294.92928
55292.8108
1.164274137
1.145324027
1.127369546
1.111590976
1.09889721
1.089533116
1.083164807
1.079150194
1.076792984
1.075498611
1.074831542
1.07450787
1.07435958
1.074295262
1.074268788
1.074258424
1.074254558
1.07425318
1.07425271
1.074252557
1.074252509
1.074252495
1.07425249
1.074252489
1.074252489
1.074252489
1.074252489
1.074252489
1.074252489
1.074252489
1.074252489
1.074252489
1.074252489
1.074252489
1.074252489
1.074252489
1.074252489
1.074252489
1.074252489
1.074252489
1.074252489
1.074252489
55297.65721
55297.68879
55297.75152
55297.76263
55297.55886
55296.90922
55295.46852
55293.22611
1.243977128
1.212135557
1.17861011
1.147868399
1.12278965
1.10425539
1.091686535
1.083797151
1.079185601
1.076664057
1.075369603
1.074743742
1.074457935
1.074334342
1.074283609
1.074263798
1.074256423
1.074253801
1.074252909
1.074252618
1.074252527
1.0742525
1.074252492
1.07425249
1.074252489
1.074252489
1.074252489
1.074252489
1.074252489
1.074252489
1.074252489
1.074252489
1.074252489
1.074252489
1.074252489
1.074252489
1.074252489
1.074252489
1.074252489
1.074252489
1.074252489
1.074252489
55297.8733
55297.90887
55297.9884
55298.07684
55297.99902
55297.49046
55296.11151
55296.04995
1.408331355
1.348030446
1.280520432
1.218302616
1.168172852
1.131716339
1.107356144
1.092248619
1.083500578
1.078752095
1.07632851
1.07516226
1.074631801
1.0744032
1.074309648
1.074273214
1.074259684
1.074254884
1.074253254
1.074252724
1.074252558
1.074252509
1.074252494
1.07425249
1.074252489
1.074252489
1.074252489
1.074252489
1.074252489
1.074252489
1.074252489
1.074252489
1.074252489
1.074252489
1.074252489
1.074252489
1.074252489
1.074252489
1.074252489
1.074252489
1.074252489
1.074252489
55298.10419
55298.14123
55298.23479
55298.38191
55298.44177
55298.11536
55296.87729
55294.59501
1.764521967
1.632784399
1.485366164
1.354234981
1.252742103
1.181488391
1.13517353
1.107027917
1.090964796
1.082335367
1.077964131
1.075872702
1.074925772
1.074519233
1.074353397
1.074288994
1.074265136
1.074256691
1.07425383
1.0742529
1.07425261
1.074252523
1.074252498
1.074252491
1.074252489
1.074252489
1.074252489
1.074252489
1.074252489
1.074252489
1.074252489
1.074252489
1.074252489
1.074252489
1.074252489
1.074252489
1.074252489
1.074252489
1.074252489
1.074252489
1.074252489
1.074252489
55298.35068
55298.38984
55298.49075
55298.67618
55298.88183
55298.78552
55297.79401
55294.399
2.607404771
2.266611084
1.910986489
1.618943758
1.408722909
1.269536163
1.182924248
1.131874718
1.103336599
1.088216656
1.080629949
1.077024526
1.075400392
1.074705924
1.074423581
1.074314243
1.074273841
1.07425957
1.074254745
1.07425318
1.074252693
1.074252547
1.074252505
1.074252493
1.07425249
1.074252489
1.074252489
1.074252489
1.074252489
1.074252489
1.074252489
1.074252489
1.074252489
1.074252489
1.074252489
1.074252489
1.074252489
1.074252489
1.074252489
1.074252489
1.074252489
1.074252489
55298.61309
55298.65545
55298.76554
55298.98297
55299.30703
55299.49056
55298.87321
55295.6179
4.897521647
3.826561519
2.852985747
2.149952344
1.697141141
1.422606052
1.262411887
1.172053254
1.122968871
1.097435673
1.084774419
1.078804821
1.076130755
1.0749922
1.074530886
1.07435275
1.074287086
1.074263943
1.074256132
1.074253603
1.074252817
1.074252582
1.074252514
1.074252496
1.074252491
1.074252489
1.074252489
1.074252489
1.074252489
1.074252489
1.074252489
1.074252489
1.074252489
1.074252489
1.074252489
1.074252489
1.074252489
1.074252489
1.074252489
1.074252489
1.074252489
1.074252489
55298.8911
55298.93751
55299.05993
55299.29974
55299.70773
55300.19898
55300.08757
55297.36508
12.33705465
8.220464783
5.138505205
3.271404201
2.239591719
1.68628193
1.391199751
1.234597149
1.152772225
1.111215301
1.090908726
1.081422748
1.077199765
1.075409717
1.074686929
1.074408609
1.07430626
1.074270261
1.074258133
1.074254213
1.074252996
1.074252633
1.074252528
1.074252499
1.074252491
1.074252489
1.074252489
1.074252489
1.074252489
1.074252489
1.074252489
1.074252489
1.074252489
1.074252489
1.074252489
1.074252489
1.074252489
1.074252489
1.074252489
1.074252489
1.074252489
1.074252489
55299.18277
55299.23496
55299.37479
55299.648
55300.12472
55300.8507
55301.36455
55299.632
40.8677342
22.38241742
11.27654787
5.797646227
3.289001055
2.139560691
1.594965749
1.328370327
1.196008741
1.130817511
1.099533178
1.085076448
1.078684363
1.07598745
1.074902236
1.0744855
1.074332599
1.074278925
1.074260872
1.074255047
1.074253241
1.074252702
1.074252547
1.074252504
1.074252493
1.07425249
1.074252489
1.074252489
1.074252489
1.074252489
1.074252489
1.074252489
1.074252489
1.074252489
1.074252489
1.074252489
1.074252489
1.074252489
1.074252489
1.074252489
1.074252489
1.074252489
55299.48355
55299.54398
55299.70658
55300.02722
55300.57705
55301.45932
55302.60152
55302.13815
157.725459
71.51973515
29.00218869
11.81580082
5.378161774
2.918856693
1.910061743
1.463678687
1.255831545
1.157287202
1.111017444
1.089901577
1.08063467
1.076743645
1.075183269
1.074585637
1.074366835
1.074290168
1.074264422
1.074256126
1.074253557
1.074252791
1.074252571
1.074252511
1.074252494
1.07425249
1.074252489
1.074252489
1.074252489
1.074252489
1.074252489
1.074252489
1.074252489
1.074252489
1.074252489
1.074252489
1.074252489
1.074252489
1.074252489
1.074252489
1.074252489
1.074252489
55299.78617
55299.85743
55300.04943
55300.4331
55301.09472
55302.14781
55303.68953
55304.52736
592.8216756
235.216873
80.22334873
26.40790858
9.585069995
4.24893735
2.384304097
1.650897372
1.334478314
1.191083497
1.125443647
1.095907167
1.083048707
1.077676227
1.075528931
1.074708543
1.074408782
1.074303921
1.074268759
1.074257442
1.074253942
1.0742529
1.074252601
1.074252518
1.074252496
1.074252491
1.074252489
1.074252489
1.074252489
1.074252489
1.074252489
1.074252489
1.074252489
1.074252489
1.074252489
1.074252489
1.074252489
1.074252489
1.074252489
1.074252489
1.074252489
1.074252489
55300.08073
55300.16458
55300.39078
55300.84523
55301.63644
55302.86927
55304.66804
55306.54649
1867.359857
698.8509159
215.0587145
60.2221703
17.84489677
6.457934505
3.070945167
1.89728704
1.43206528
1.231637764
1.14244097
1.102912769
1.085848623
1.078753992
1.075927399
1.074849949
1.074456966
1.074319698
1.074273728
1.074258949
1.074254382
1.074253024
1.074252635
1.074252527
1.074252499
1.074252491
1.074252489
1.074252489
1.074252489
1.074252489
1.074252489
1.074252489
1.074252489
1.074252489
1.074252489
1.074252489
1.074252489
1.074252489
1.074252489
1.074252489
1.074252489
1.074252489
55300.35555
55300.45299
55300.71637
55301.24741
55302.17908
55303.62906
55305.66151
55308.09621
4596.786554
1725.985206
512.4728017
129.9877351
32.87222995
9.912546397
4.007551635
2.201305585
1.545090109
1.276939938
1.161061562
1.110508107
1.088866871
1.079911799
1.076354467
1.075001242
1.074508446
1.074336535
1.074279025
1.074260554
1.074254851
1.074253156
1.074252671
1.074252537
1.074252501
1.074252492
1.07425249
1.074252489
1.074252489
1.074252489
1.074252489
1.074252489
1.074252489
1.074252489
1.074252489
1.074252489
1.074252489
1.074252489
1.074252489
1.074252489
1.074252489
1.074252489
55300.59795
55300.70914
55301.01007
55301.61825
55302.68504
55304.33923
55306.53436
55309.21565
8855.913001
3448.153674
1032.907974
250.360608
56.81312408
14.7835453
5.174222332
2.545089087
1.665102976
1.323329523
1.179761589
1.118058558
1.091850934
1.081052875
1.076774499
1.075149819
1.074558941
1.074353032
1.074284211
1.074262124
1.074255309
1.074253285
1.074252706
1.074252546
1.074252503
1.074252492
1.07425249
1.074252489
1.074252489
1.074252489
1.074252489
1.074252489
1.074252489
1.074252489
1.074252489
1.074252489
1.074252489
1.074252489
1.074252489
1.074252489
1.074252489
1.074252489
55300.79506
55300.91907
55301.25481
55301.93447
55303.12242
55304.94631
55307.27125
55309.97787
13818.36511
5623.120657
1732.456115
415.2333368
88.30415786
20.65019332
6.443578047
2.888776974
1.778447992
1.365711159
1.196544637
1.124772913
1.094491766
1.082059959
1.077144572
1.075280564
1.074603334
1.074367525
1.074288764
1.074263501
1.074255711
1.074253398
1.074252737
1.074252554
1.074252505
1.074252493
1.07425249
1.074252489
1.074252489
1.074252489
1.074252489
1.074252489
1.074252489
1.074252489
1.074252489
1.074252489
1.074252489
1.074252489
1.074252489
1.074252489
1.074252489
1.074252489
55300.93496
55301.06936
55301.43343
55302.17188
55303.46007
55305.41387
55307.84578
55310.44964
18147.58243
7655.079689
2425.712624
583.6398548
120.0018667
26.23139189
7.565121979
3.173227281
1.86810351
1.398349472
1.209284968
1.129832437
1.096474152
1.082814354
1.077421431
1.075378289
1.074636492
1.074378343
1.07429216
1.074264528
1.07425601
1.074253482
1.07425276
1.07425256
1.074252507
1.074252493
1.07425249
1.074252489
1.074252489
1.074252489
1.074252489
1.074252489
1.074252489
1.074252489
1.074252489
1.074252489
1.074252489
1.074252489
1.074252489
1.074252489
1.074252489
1.074252489
55301.00785
55301.14834
55301.52906
55302.30261
55303.65235
55305.68135
55308.20356
55310.67772
20647.35146
8880.920298
2861.148419
692.0685417
140.3596255
29.70863421
8.233561993
3.335934439
1.917914238
1.416169856
1.216176337
1.132556113
1.097538708
1.08321893
1.077569788
1.075430626
1.074654242
1.074384132
1.074293977
1.074265078
1.07425617
1.074253527
1.074252772
1.074252563
1.074252508
1.074252493
1.07425249
1.074252489
1.074252489
1.074252489
1.074252489
1.074252489
1.074252489
1.074252489
1.074252489
1.074252489
1.074252489
1.074252489
1.074252489
1.074252489
1.074252489
1.074252489
55301.00785
55301.14834
55301.52906
55302.30261
55303.65235
55305.68135
55308.20356
55310.67772
20647.35167
8880.920232
2861.148397
692.068537
140.3596247
29.7086341
8.233561976
3.335934435
1.917914237
1.416169856
1.216176337
1.132556113
1.097538708
1.08321893
1.077569788
1.075430626
1.074654242
1.074384132
1.074293977
1.074265078
1.07425617
1.074253527
1.074252772
1.074252563
1.074252508
1.074252493
1.07425249
1.074252489
1.074252489
1.074252489
1.074252489
1.074252489
1.074252489
1.074252489
1.074252489
1.074252489
1.074252489
1.074252489
1.074252489
1.074252489
1.074252489
1.074252489
55300.93496
55301.06936
55301.43343
55302.17188
55303.46007
55305.41387
55307.84578
55310.44964
18147.58328
7655.079518
2425.712573
583.6398445
120.0018651
26.23139166
7.565121943
3.173227273
1.868103508
1.398349472
1.209284968
1.129832437
1.096474152
1.082814354
1.077421431
1.075378289
1.074636492
1.074378343
1.07429216
1.074264528
1.07425601
1.074253482
1.07425276
1.07425256
1.074252507
1.074252493
1.07425249
1.074252489
1.074252489
1.074252489
1.074252489
1.074252489
1.074252489
1.074252489
1.074252489
1.074252489
1.074252489
1.074252489
1.074252489
1.074252489
1.074252489
1.074252489
55300.79506
55300.91907
55301.25481
55301.93447
55303.12242
55304.94631
55307.27125
55309.97787
13818.36627
5623.120479
1732.45607
415.2333283
88.30415665
20.65019316
6.443578022
2.888776969
1.778447991
1.365711158
1.196544637
1.124772913
1.094491766
1.082059959
1.077144572
1.075280564
1.074603334
1.074367525
1.074288764
1.074263501
1.074255711
1.074253398
1.074252737
1.074252554
1.074252505
1.074252493
1.07425249
1.074252489
1.074252489
1.074252489
1.074252489
1.074252489
1.074252489
1.074252489
1.074252489
1.074252489
1.074252489
1.074252489
1.074252489
1.074252489
1.074252489
1.074252489
55300.59795
55300.70914
55301.01007
55301.61825
55302.68504
55304.33923
55306.53436
55309.21565
8855.913647
3448.153596
1032.907959
250.3606059
56.81312391
14.7835453
5.174222337
2.54508909
1.665102977
1.323329523
1.179761589
1.118058558
1.091850934
1.081052875
1.076774499
1.075149819
1.074558941
1.074353032
1.074284211
1.074262124
1.074255309
1.074253285
1.074252706
1.074252546
1.074252503
1.074252492
1.07425249
1.074252489
1.074252489
1.074252489
1.074252489
1.074252489
1.074252489
1.074252489
1.074252489
1.074252489
1.074252489
1.074252489
1.074252489
1.074252489
1.074252489
1.074252489
55300.35555
55300.45299
55300.71637
55301.24741
55302.17908
55303.62906
55305.66151
55308.09621
4596.786402
1725.985238
512.4728123
129.9877378
32.87223055
9.912546534
4.007551671
2.201305596
1.545090113
1.27693994
1.161061563
1.110508107
1.088866871
1.079911799
1.076354467
1.075001242
1.074508446
1.074336535
1.074279025
1.074260554
1.074254851
1.074253156
1.074252671
1.074252537
1.074252501
1.074252492
1.07425249
1.074252489
1.074252489
1.074252489
1.074252489
1.074252489
1.074252489
1.074252489
1.074252489
1.074252489
1.074252489
1.074252489
1.074252489
1.074252489
1.074252489
1.074252489
55300.08073
55300.16458
55300.39078
55300.84523
55301.63644
55302.86927
55304.66804
55306.54649
1867.359455
698.8509796
215.0587303
60.22217382
17.84489753
6.457934688
3.070945218
1.897287057
1.432065287
1.231637766
1.142440971
1.102912769
1.085848623
1.078753992
1.075927399
1.074849949
1.074456966
1.074319698
1.074273728
1.074258949
1.074254382
1.074253024
1.074252635
1.074252527
1.074252499
1.074252491
1.074252489
1.074252489
1.074252489
1.074252489
1.074252489
1.074252489
1.074252489
1.074252489
1.074252489
1.074252489
1.074252489
1.074252489
1.074252489
1.074252489
1.074252489
1.074252489
55299.78617
55299.85743
55300.04943
55300.43309
55301.09472
55302.14781
55303.68953
55304.52736
592.8216128
235.2169088
80.22335824
26.40791091
9.585070578
4.248937511
2.384304148
1.650897391
1.334478321
1.1910835
1.125443649
1.095907167
1.083048707
1.077676227
1.075528931
1.074708543
1.074408782
1.074303921
1.074268759
1.074257442
1.074253942
1.0742529
1.074252601
1.074252518
1.074252496
1.074252491
1.074252489
1.074252489
1.074252489
1.074252489
1.074252489
1.074252489
1.074252489
1.074252489
1.074252489
1.074252489
1.074252489
1.074252489
1.074252489
1.074252489
1.074252489
1.074252489
55299.48355
55299.54398
55299.70658
55300.02722
55300.57705
55301.45932
55302.60152
55302.13816
157.7254797
71.51974754
29.00219259
11.81580197
5.378162125
2.918856809
1.910061785
1.463678704
1.255831552
1.157287205
1.111017445
1.089901578
1.08063467
1.076743645
1.075183269
1.074585637
1.074366835
1.074290168
1.074264422
1.074256126
1.074253557
1.074252791
1.074252571
1.074252511
1.074252494
1.07425249
1.074252489
1.074252489
1.074252489
1.074252489
1.074252489
1.074252489
1.074252489
1.074252489
1.074252489
1.074252489
1.074252489
1.074252489
1.074252489
1.074252489
1.074252489
1.074252489
55299.18277
55299.23496
55299.37479
55299.648
55300.12472
55300.8507
55301.36455
55299.63281
40.86774185
22.38242099
11.27654924
5.797646731
3.289001243
2.139560765
1.594965779
1.32837034
1.196008747
1.130817514
1.099533179
1.085076448
1.078684363
1.07598745
1.074902236
1.0744855
1.074332599
1.074278925
1.074260872
1.074255047
1.074253241
1.074252702
1.074252547
1.074252504
1.074252493
1.07425249
1.074252489
1.074252489
1.074252489
1.074252489
1.074252489
1.074252489
1.074252489
1.074252489
1.074252489
1.074252489
1.074252489
1.074252489
1.074252489
1.074252489
1.074252489
1.074252489
55298.8911
55298.93751
55299.05993
55299.29974
55299.70774
55300.19899
55300.08757
55297.38375
12.33705695
8.220465796
5.138505672
3.271404414
2.239591814
1.686281973
1.391199771
1.234597158
1.152772229
1.111215303
1.090908727
1.081422748
1.077199765
1.075409717
1.074686929
1.074408609
1.07430626
1.074270261
1.074258133
1.074254213
1.074252996
1.074252633
1.074252528
1.074252499
1.074252491
1.074252489
1.074252489
1.074252489
1.074252489
1.074252489
1.074252489
1.074252489
1.074252489
1.074252489
1.074252489
1.074252489
1.074252489
1.074252489
1.074252489
1.074252489
1.074252489
1.074252489
55298.61309
55298.65545
55298.76555
55298.98298
55299.30704
55299.49056
55298.87321
55295.60218
4.897522134
3.826561797
2.85298591
2.149952434
1.697141188
1.422606075
1.262411899
1.17205326
1.122968874
1.097435674
1.084774419
1.078804821
1.076130755
1.0749922
1.074530886
1.07435275
1.074287086
1.074263943
1.074256132
1.074253603
1.074252817
1.074252582
1.074252514
1.074252496
1.074252491
1.074252489
1.074252489
1.074252489
1.074252489
1.074252489
1.074252489
1.074252489
1.074252489
1.074252489
1.074252489
1.074252489
1.074252489
1.074252489
1.074252489
1.074252489
1.074252489
1.074252489
55298.35068
55298.38985
55298.49075
55298.67618
55298.88184
55298.78553
55297.79401
55294.38634
2.607404917
2.266611172
1.910986549
1.618943796
1.408722931
1.269536175
1.182924255
1.131874721
1.103336601
1.088216657
1.080629949
1.077024526
1.075400392
1.074705924
1.074423581
1.074314243
1.074273841
1.07425957
1.074254745
1.07425318
1.074252693
1.074252547
1.074252505
1.074252493
1.07425249
1.074252489
1.074252489
1.074252489
1.074252489
1.074252489
1.074252489
1.074252489
1.074252489
1.074252489
1.074252489
1.074252489
1.074252489
1.074252489
1.074252489
1.074252489
1.074252489
1.074252489
55298.10419
55298.14123
55298.23479
55298.38191
55298.44177
55298.11536
55296.8773
55294.54487
1.76452206
1.632784432
1.485366187
1.354234996
1.252742112
1.181488396
1.135173534
1.107027918
1.090964797
1.082335368
1.077964131
1.075872702
1.074925772
1.074519233
1.074353397
1.074288994
1.074265136
1.074256691
1.07425383
1.0742529
1.07425261
1.074252523
1.074252498
1.074252491
1.074252489
1.074252489
1.074252489
1.074252489
1.074252489
1.074252489
1.074252489
1.074252489
1.074252489
1.074252489
1.074252489
1.074252489
1.074252489
1.074252489
1.074252489
1.074252489
1.074252489
1.074252489
55297.8733
55297.90887
55297.9884
55298.07684
55297.99902
55297.49047
55296.11152
55295.9324
1.408331416
1.348030456
1.280520439
1.218302621
1.168172856
1.131716341
1.107356145
1.092248619
1.083500578
1.078752095
1.07632851
1.07516226
1.074631801
1.0744032
1.074309648
1.074273214
1.074259684
1.074254884
1.074253254
1.074252724
1.074252558
1.074252509
1.074252494
1.07425249
1.074252489
1.074252489
1.074252489
1.074252489
1.074252489
1.074252489
1.074252489
1.074252489
1.074252489
1.074252489
1.074252489
1.074252489
1.074252489
1.074252489
1.074252489
1.074252489
1.074252489
1.074252489
55297.65721
55297.68879
55297.75152
55297.76263
55297.55887
55296.90922
55295.46852
55293.23654
1.243977153
1.212135555
1.178610109
1.147868399
1.122789651
1.10425539
1.091686535
1.083797151
1.079185601
1.076664057
1.075369603
1.074743742
1.074457935
1.074334342
1.074283609
1.074263798
1.074256423
1.074253801
1.074252909
1.074252618
1.074252527
1.0742525
1.074252492
1.07425249
1.074252489
1.074252489
1.074252489
1.074252489
1.074252489
1.074252489
1.074252489
1.074252489
1.074252489
1.074252489
1.074252489
1.074252489
1.074252489
1.074252489
1.074252489
1.074252489
1.074252489
1.074252489
55297.45701
55297.48455
55297.51179
55297.43952
55297.12396
55296.36879
55294.92928
55292.81775
1.164274128
1.145324021
1.127369542
1.111590975
1.09889721
1.089533116
1.083164807
1.079150194
1.076792984
1.075498611
1.074831542
1.07450787
1.07435958
1.074295262
1.074268788
1.074258424
1.074254558
1.07425318
1.07425271
1.074252557
1.074252509
1.074252495
1.07425249
1.074252489
1.074252489
1.074252489
1.074252489
1.074252489
1.074252489
1.074252489
1.074252489
1.074252489
1.074252489
1.074252489
1.074252489
1.074252489
1.074252489
1.074252489
1.074252489
1.074252489
1.074252489
1.074252489
55297.27169
55297.28616
55297.26344
55297.1085
55296.69797
55295.87335
55294.49723
55292.75917
1.124497261
1.112071573
1.101663656
1.093171642
1.086613482
1.081877815
1.078690965
1.076691222
1.075518668
1.07487453
1.074542097
1.074380482
1.074306276
1.074274017
1.074260709
1.074255488
1.074253536
1.074252839
1.074252601
1.074252524
1.074252499
1.074252492
1.07425249
1.074252489
1.074252489
1.074252489
1.074252489
1.074252489
1.074252489
1.074252489
1.074252489
1.074252489
1.074252489
1.074252489
1.074252489
1.074252489
1.074252489
1.074252489
1.074252489
1.074252489
1.074252489
1.074252489
55297.09192
55297.08112
55297.00148
55296.76994
55296.28361
55295.42492
55294.16172
55292.70986
1.104231853
1.095409241
1.088842489
1.083968752
1.080447738
1.078013883
1.076420293
1.075436748
1.074865528
1.074553321
1.074392559
1.074314444
1.074278557
1.074262938
1.074256485
1.074253949
1.074253
1.07425266
1.074252544
1.074252506
1.074252494
1.07425249
1.074252489
1.074252489
1.074252489
1.074252489
1.074252489
1.074252489
1.074252489
1.074252489
1.074252489
1.074252489
1.074252489
1.074252489
1.074252489
1.074252489
1.074252489
1.074252489
1.074252489
1.074252489
1.074252489
1.074252489
55296.90272
55296.85902
55296.72099
55296.42079
55295.87616
55295.01099
55293.90147
55292.67636
1.093561633
1.086925641
1.082440313
1.079418969
1.077412221
1.076113221
1.075302262
1.074817869
1.074542527
1.074394053
1.074318212
1.074281523
1.074264704
1.074257388
1.074254364
1.074253175
1.074252729
1.074252569
1.074252515
1.074252497
1.074252491
1.074252489
1.074252489
1.074252489
1.074252489
1.074252489
1.074252489
1.074252489
1.074252489
1.074252489
1.074252489
1.074252489
1.074252489
1.074252489
1.074252489
1.074252489
1.074252489
1.074252489
1.074252489
1.074252489
1.074252489
1.074252489
55296.69076
55296.61085
55296.41421
55296.0493
55295.4546
55294.61184
55293.67078
55292.65319
1.087546809
1.082416544
1.07917322
1.077158578
1.075929337
1.075194071
1.074764653
1.07452111
1.074387787
1.074317731
1.074282548
1.074265708
1.074258037
1.074254712
1.07425334
1.0742528
1.074252598
1.074252525
1.074252501
1.074252492
1.07425249
1.074252489
1.074252489
1.074252489
1.074252489
1.074252489
1.074252489
1.074252489
1.074252489
1.074252489
1.074252489
1.074252489
1.074252489
1.074252489
1.074252489
1.074252489
1.074252489
1.074252489
1.074252489
1.074252489
1.074252489
1.074252489
55296.44307
55296.32438
55296.06647
55295.63493
55294.99882
55294.23172
55293.45326
55292.63752
1.083772598
1.079810496
1.077406655
1.075996447
1.075194075
1.074749624
1.074509035
1.074381536
1.074315494
1.074282209
1.07426598
1.074258365
1.07425494
1.074253467
1.074252863
1.074252626
1.074252537
1.074252505
1.074252494
1.07425249
1.074252489
1.074252489
1.074252489
1.074252489
1.074252489
1.074252489
1.074252489
1.074252489
1.074252489
1.074252489
1.074252489
1.074252489
1.074252489
1.074252489
1.074252489
1.074252489
1.074252489
1.074252489
1.074252489
1.074252489
1.074252489
1.074252489
55296.13741
55295.97545
55295.64976
55295.15275
55294.51677
55293.86811
55293.2507
55292.63001
1.081075935
1.078106418
1.076346346
1.075349636
1.074809433
1.074528026
1.074386035
1.074316046
1.074282151
1.074266009
1.074258477
1.074255053
1.074253547
1.074252908
1.074252648
1.074252547
1.074252509
1.074252496
1.074252491
1.074252489
1.074252489
1.074252489
1.074252489
1.074252489
1.074252489
1.074252489
1.074252489
1.074252489
1.074252489
1.074252489
1.074252489
1.074252489
1.074252489
1.074252489
1.074252489
1.074252489
1.074252489
1.074252489
1.074252489
1.074252489
1.074252489
1.074252489
55295.7217
55295.51026
55295.11831
55294.59325
55294.02894
55293.51913
55293.0597
55292.62299
1.078905919
1.076828541
1.075613999
1.07493997
1.074585431
1.074408309
1.074323602
1.074284378
1.074266593
1.074258638
1.07425512
1.074253588
1.074252934
1.074252663
1.074252555
1.074252513
1.074252497
1.074252492
1.07425249
1.074252489
1.074252489
1.074252489
1.074252489
1.074252489
1.074252489
1.074252489
1.074252489
1.074252489
1.074252489
1.074252489
1.074252489
1.074252489
1.074252489
1.074252489
1.074252489
1.074252489
1.074252489
1.074252489
1.074252489
1.074252489
1.074252489
1.074252489
55295.06314
55294.80404
55294.38881
55293.9344
55293.52084
55293.17809
55292.87966
55292.61164
1.076994214
1.075748748
1.07503018
1.074636481
1.074432963
1.074333795
1.074287957
1.074267629
1.074258864
1.074255147
1.074253585
1.074252934
1.074252665
1.074252557
1.074252514
1.074252498
1.074252492
1.07425249
1.074252489
1.074252489
1.074252489
1.074252489
1.074252489
1.074252489
1.074252489
1.074252489
1.074252489
1.074252489
1.074252489
1.074252489
1.074252489
1.074252489
1.074252489
1.074252489
1.074252489
1.074252489
1.074252489
1.074252489
1.074252489
1.074252489
1.074252489
1.074252489
55293.82129
55293.59435
55293.31918
55293.10071
55292.93795
55292.80803
55292.69705
55292.59546
1.075174538