/*--------------------------------*- C++ -*----------------------------------*\
  =========                 |
  \\      /  F ield         | OpenFOAM: The Open Source CFD Toolbox
   \\    /   O peration     | Website:  https://openfoam.org
    \\  /    A nd           | Version:  6
     \\/     M anipulation  |
\*---------------------------------------------------------------------------*/
FoamFile
{
    version     2.0;
    format      ascii;
    class       volScalarField;
    location    "0.1";
    object      Temperature;
}
// * * * * * * * * * * * * * * * * * * * * * * * * * * * * * * * * * * * * * //

dimensions      [0 0 0 1 0 0 0];

internalField   nonuniform List<scalar> 
2500
(
317.6263837
314.2202533
310.1873306
307.0582491
304.7673133
302.9632251
301.4389664
300.0557057
300.0214146
300.0114972
300.0059122
300.0028869
300.0013376
300.0005915
300.0002521
300.0001047
300.0000429
300.0000174
300.000007
300.0000028
300.0000011
300.0000004
300.0000002
300.0000001
300
300
300
300
300
300
300
300
300
300
300
300
300
300
300
300
300
300
300
300
300
300
300
300
300
300
337.6554594
333.2713384
326.478643
319.3548389
313.1342281
308.159943
303.955675
300.1573596
300.063632
300.0347488
300.0180694
300.0089254
300.0041964
300.0018912
300.0008252
300.0003524
300.0001484
300.0000619
300.0000255
300.0000104
300.0000041
300.0000016
300.0000006
300.0000002
300.0000001
300
300
300
300
300
300
300
300
300
300
300
300
300
300
300
300
300
300
300
300
300
300
300
300
300
349.3390393
345.5027367
338.6093276
329.7930966
320.8138241
313.1106621
306.4788626
300.2615429
300.1079217
300.0598016
300.0316277
300.015978
300.0077412
300.0036242
300.0016545
300.0007421
300.0003283
300.0001432
300.0000613
300.0000256
300.0000104
300.0000041
300.0000015
300.0000006
300.0000002
300.0000001
300
300
300
300
300
300
300
300
300
300
300
300
300
300
300
300
300
300
300
300
300
300
300
300
357.1404443
354.0625857
348.0305486
339.2093014
328.549928
318.3442377
309.202132
300.3762433
300.1581195
300.0894247
300.0486278
300.0254958
300.0129484
300.0064083
300.0031069
300.001479
300.0006904
300.0003147
300.0001394
300.0000597
300.0000246
300.0000098
300.0000037
300.0000014
300.0000005
300.0000002
300.0000001
300
300
300
300
300
300
300
300
300
300
300
300
300
300
300
300
300
300
300
300
300
300
300
363.1019068
360.7660541
355.7909008
347.7643428
336.5683217
323.9861702
312.143323
300.5084384
300.2203883
300.128885
300.0732249
300.0405174
300.0218876
300.0115606
300.0059677
300.0030026
300.0014663
300.0006918
300.0003141
300.0001368
300.0000571
300.0000228
300.0000087
300.0000032
300.0000011
300.0000004
300.0000001
300
300
300
300
300
300
300
300
300
300
300
300
300
300
300
300
300
300
300
300
300
300
300
368.079811
366.4608381
362.5350526
355.465894
344.5150016
330.0998332
315.3644704
300.6710611
300.3073279
300.1891343
300.1141615
300.0674873
300.038967
300.0218909
300.0119114
300.006249
300.0031482
300.0015184
300.0006997
300.0003078
300.0001292
300.0000518
300.0000198
300.0000073
300.0000025
300.0000009
300.0000003
300.0000001
300
300
300
300
300
300
300
300
300
300
300
300
300
300
300
300
300
300
300
300
300
300
372.4486871
371.5408335
368.6996205
362.6648891
352.2039628
336.7712328
318.8518535
300.8911489
300.4453647
300.2930959
300.1897208
300.1198722
300.0733804
300.0432414
300.024407
300.0131495
300.0067475
300.0032941
300.0015297
300.0006759
300.0002844
300.0001141
300.0000437
300.000016
300.0000056
300.0000019
300.0000006
300.0000002
300.0000001
300
300
300
300
300
300
300
300
300
300
300
300
300
300
300
300
300
300
300
300
300
376.4371179
376.2079323
374.5220559
369.7019989
359.9693539
343.9795426
322.8800274
301.2285809
300.6886878
300.4877156
300.3372274
300.2250288
300.1436962
300.0873381
300.0503738
300.0275335
300.0142583
300.0069989
300.0032595
300.001442
300.0006069
300.0002433
300.0000931
300.000034
300.0000119
300.000004
300.0000013
300.0000004
300.0000001
300
300
300
300
300
300
300
300
300
300
300
300
300
300
300
300
300
300
300
300
300
380.3073803
380.6224544
380.1288368
376.7922826
368.2269968
352.146948
328.2269693
301.8082224
301.145454
300.8663062
300.6304428
300.4365905
300.2860021
300.1767752
300.1030364
300.0566658
300.0294386
300.0144684
300.0067382
300.0029787
300.001252
300.0005012
300.0001914
300.0000699
300.0000244
300.0000082
300.0000026
300.0000008
300.0000002
300.0000001
300
300
300
300
300
300
300
300
300
300
300
300
300
300
300
300
300
300
300
300
384.3815322
384.9944035
385.6026984
383.9937311
377.1219281
361.6352617
335.3806405
302.847313
302.0223443
301.6078684
301.2098087
300.8555644
300.5674889
300.3531684
300.2065155
300.1136817
300.059031
300.0289743
300.0134697
300.0059424
300.0024925
300.0009958
300.0003795
300.0001382
300.0000482
300.0000161
300.0000052
300.0000016
300.0000005
300.0000001
300
300
300
300
300
300
300
300
300
300
300
300
300
300
300
300
300
300
300
300
388.8820579
389.6017368
391.0386207
391.2941361
386.6584341
372.586092
344.7584748
304.7333894
303.7067472
303.045065
302.3324915
301.6640309
301.1075144
300.6894823
300.4026207
300.2211246
300.1145086
300.0560419
300.0259779
300.0114287
300.0047811
300.0019053
300.0007246
300.0002634
300.0000916
300.0000306
300.0000098
300.000003
300.0000009
300.0000003
300.0000001
300
300
300
300
300
300
300
300
300
300
300
300
300
300
300
300
300
300
300
393.8588943
394.689923
396.5620624
398.6647001
396.8136918
385.1283906
356.6487909
308.1988372
306.9142285
305.7756368
304.4494683
303.1746378
302.107357
301.3068798
300.7598766
300.4155337
300.2142919
300.1044712
300.0482545
300.0211599
300.0088257
300.0035077
300.0013307
300.0004826
300.0001676
300.0000558
300.0000178
300.0000055
300.0000016
300.0000005
300.0000001
300
300
300
300
300
300
300
300
300
300
300
300
300
300
300
300
300
300
300
399.3192679
400.2089638
402.474937
406.0904618
407.5806748
399.5889033
371.9243366
314.5717597
312.9183538
310.8261796
308.3120916
305.8952029
303.8871014
302.3946791
301.3837915
300.7524797
300.3861067
300.1873914
300.0862103
300.0376701
300.0156627
300.0062075
300.0023489
300.00085
300.0002945
300.0000979
300.0000312
300.0000096
300.0000028
300.0000008
300.0000002
300.0000001
300
300
300
300
300
300
300
300
300
300
300
300
300
300
300
300
300
300
405.3182673
406.2873963
408.8068118
413.5192131
418.8762616
416.3529681
392.0225652
326.1801844
323.8902378
319.867719
315.0991496
310.599105
306.9225603
304.2287709
302.42562
301.3105496
300.6687179
300.3229841
300.1479649
300.0644162
300.0266967
300.0105505
300.0039822
300.0014377
300.0004972
300.0001649
300.0000526
300.0000161
300.0000048
300.0000014
300.0000004
300.0000001
300
300
300
300
300
300
300
300
300
300
300
300
300
300
300
300
300
300
411.9059528
412.9888098
415.8307365
421.5605635
430.4001227
435.5761123
418.653904
346.8382284
343.3218204
335.4451087
326.5309011
318.3772046
311.8666566
307.1793324
304.0845949
302.1916872
301.1117747
300.534288
300.243714
300.1057059
300.0436672
300.0172083
300.006479
300.002334
300.0008056
300.0002668
300.0000849
300.000026
300.0000077
300.0000022
300.0000006
300.0000002
300
300
300
300
300
300
300
300
300
300
300
300
300
300
300
300
300
300
419.1230533
420.3518635
423.6287057
430.1984683
441.8567574
456.7655664
453.3023315
382.2185825
376.4156264
361.1214608
344.9011976
330.6281744
319.530268
311.6942134
306.5965932
303.5144341
301.7721471
300.84736
300.3848661
300.166315
300.0684872
300.0269151
300.0101092
300.003634
300.0012519
300.0004139
300.0001315
300.0000402
300.0000118
300.0000034
300.0000009
300.0000002
300.0000001
300
300
300
300
300
300
300
300
300
300
300
300
300
300
300
300
300
426.9715264
428.4064998
432.2990776
440.1132872
454.446896
478.1641299
496.5102608
439.6602664
430.1661269
401.3606521
372.9232393
348.9294666
330.7922421
318.2428366
310.201972
305.3967291
302.705277
301.2871654
300.5821899
300.2506945
300.1029201
300.0403406
300.0151171
300.0054233
300.0018651
300.0006156
300.0001953
300.0000596
300.0000175
300.000005
300.0000014
300.0000004
300.0000001
300
300
300
300
300
300
300
300
300
300
300
300
300
300
300
300
300
435.3786456
437.1072133
441.8277001
451.4418457
468.9402595
500.0427294
547.0136698
526.9492761
512.7107491
460.9214203
413.2757514
374.7356965
346.4149653
327.2107264
315.0886847
307.9268387
303.9510621
301.8710515
300.8429378
300.3617588
300.1480918
300.0579032
300.0216521
300.0077532
300.0026619
300.0008774
300.0002779
300.0000847
300.0000249
300.000007
300.0000019
300.0000005
300.0000001
300
300
300
300
300
300
300
300
300
300
300
300
300
300
300
300
300
444.1779416
446.3014393
452.1252341
464.2305041
486.7030141
527.3346015
600.7591665
649.9546938
631.5073327
543.5838072
467.7894717
408.891406
366.7676769
338.7497794
321.3148872
311.1251074
305.5157716
302.6005659
301.1673019
300.4994169
300.2039072
300.0795471
300.0296876
300.0106126
300.0036382
300.0011976
300.0003789
300.0001154
300.0000339
300.0000096
300.0000026
300.0000007
300.0000002
300
300
300
300
300
300
300
300
300
300
300
300
300
300
300
300
300
453.0910594
455.6933536
462.8652454
477.9792828
506.7906919
559.3241416
658.9903621
809.6664182
790.1560164
650.2406392
536.3534468
451.0276041
391.5051137
352.6130876
328.7270589
314.904858
307.3540795
303.4535185
301.5450446
300.6591977
300.268512
300.10454
300.0389476
300.0139018
300.0047596
300.0015649
300.0004946
300.0001505
300.0000441
300.0000125
300.0000034
300.0000009
300.0000002
300.0000001
300
300
300
300
300
300
300
300
300
300
300
300
300
300
300
300
461.7352783
464.8789384
473.595796
492.2039211
528.6459754
597.4946441
730.9214209
997.8528854
984.2924223
776.7810346
615.8327887
499.0188867
419.3015275
368.0279795
336.901089
319.0458674
309.3574983
304.3791046
301.9535123
300.8314699
300.3379966
300.1313648
300.0488686
300.0174205
300.0059575
300.0019568
300.000618
300.0001879
300.000055
300.0000155
300.0000042
300.0000011
300.0000003
300.0000001
300
300
300
300
300
300
300
300
300
300
300
300
300
300
300
300
469.6377426
473.3532055
483.7108111
506.0911941
550.7923853
638.2014107
808.4486759
1199.179786
1198.664727
912.73733
699.4953829
548.7600315
447.7726032
383.6733109
345.1382249
323.195318
311.3559361
305.299012
302.3582575
301.0017484
300.4065345
300.1577777
300.0586227
300.0208755
300.0071325
300.0023408
300.0007387
300.0002244
300.0000657
300.0000186
300.0000051
300.0000013
300.0000003
300.0000001
300
300
300
300
300
300
300
300
300
300
300
300
300
300
300
300
476.2662815
480.5322034
492.4754663
518.5666187
571.4877007
677.6670181
887.9609549
1390.152692
1406.509162
1041.562538
777.4237271
594.4987548
473.6976595
397.8127734
352.5391051
326.9063743
313.136689
306.1162932
302.716981
301.1523648
300.4670576
300.1810692
300.0672139
300.0239154
300.0081654
300.0026781
300.0008447
300.0002565
300.0000751
300.0000212
300.0000058
300.0000015
300.0000004
300.0000001
300
300
300
300
300
300
300
300
300
300
300
300
300
300
300
300
481.0850835
485.806721
499.0751306
528.3447262
588.5594973
711.5558765
961.7035977
1542.158806
1573.658732
1143.354412
838.1979615
629.8216517
493.57155
408.5909563
358.1560604
329.7132976
314.479944
306.7314409
302.986505
301.2653641
300.5124096
300.1985044
300.0736393
300.0261874
300.0089368
300.0029299
300.0009238
300.0002804
300.000082
300.0000232
300.0000063
300.0000017
300.0000004
300.0000001
300
300
300
300
300
300
300
300
300
300
300
300
300
300
300
300
483.6349646
488.6252998
502.6819965
533.8883591
598.7453761
732.5114676
1014.153469
1628.230056
1667.49181
1199.814464
871.6199094
649.1260122
504.3824546
414.4334148
361.1925782
331.2275173
315.2033666
307.0622917
303.1313084
301.3260195
300.5367355
300.2078506
300.0770819
300.0274041
300.0093498
300.0030647
300.0009661
300.0002932
300.0000858
300.0000242
300.0000066
300.0000017
300.0000004
300.0000001
300
300
300
300
300
300
300
300
300
300
300
300
300
300
300
300
483.6349636
488.6252988
502.6819956
533.8883586
598.7453764
732.5114691
1014.153474
1628.230052
1667.491806
1199.814461
871.6199078
649.1260114
504.3824542
414.4334146
361.1925781
331.2275173
315.2033666
307.0622917
303.1313084
301.3260195
300.5367355
300.2078506
300.0770819
300.0274041
300.0093498
300.0030647
300.0009661
300.0002932
300.0000858
300.0000242
300.0000066
300.0000017
300.0000004
300.0000001
300
300
300
300
300
300
300
300
300
300
300
300
300
300
300
300
481.0850806
485.8067182
499.0751281
528.3447245
588.5594978
711.5558804
961.7036062
1542.158797
1573.658721
1143.354404
838.1979574
629.8216498
493.5715491
408.5909559
358.1560603
329.7132975
314.479944
306.7314409
302.986505
301.2653641
300.5124096
300.1985044
300.0736393
300.0261874
300.0089368
300.0029299
300.0009238
300.0002804
300.000082
300.0000232
300.0000063
300.0000017
300.0000004
300.0000001
300
300
300
300
300
300
300
300
300
300
300
300
300
300
300
300
476.2662768
480.5321988
492.4754621
518.5666158
571.4877013
677.667025
887.9609663
1390.15268
1406.509148
1041.562529
777.4237226
594.4987529
473.6976586
397.8127731
352.5391049
326.9063743
313.136689
306.1162932
302.716981
301.1523648
300.4670576
300.1810692
300.0672139
300.0239154
300.0081654
300.0026781
300.0008447
300.0002565
300.0000751
300.0000212
300.0000058
300.0000015
300.0000004
300.0000001
300
300
300
300
300
300
300
300
300
300
300
300
300
300
300
300
469.6377363
473.3531993
483.7108055
506.0911901
550.7923857
638.2014186
808.4486898
1199.179778
1198.664717
912.7373248
699.4953809
548.7600308
447.772603
383.6733109
345.1382249
323.195318
311.3559362
305.299012
302.3582575
301.0017484
300.4065345
300.1577777
300.0586227
300.0208755
300.0071325
300.0023408
300.0007387
300.0002244
300.0000657
300.0000186
300.0000051
300.0000013
300.0000003
300.0000001
300
300
300
300
300
300
300
300
300
300
300
300
300
300
300
300
461.7352706
464.8789309
473.5957892
492.2039164
528.6459762
597.494654
730.921439
997.8528882
984.2924254
776.7810377
615.8327908
499.0188882
419.3015284
368.02798
336.9010893
319.0458675
309.3574984
304.3791046
301.9535123
300.8314699
300.3379966
300.1313648
300.0488686
300.0174205
300.0059575
300.0019568
300.000618
300.0001879
300.000055
300.0000155
300.0000042
300.0000011
300.0000003
300.0000001
300
300
300
300
300
300
300
300
300
300
300
300
300
300
300
300
453.0910508
455.6933452
462.8652378
477.9792775
506.7906929
559.3241524
658.9903856
809.666432
790.1560332
650.2406499
536.3534526
451.0276074
391.5051155
352.6130886
328.7270594
314.9048582
307.3540796
303.4535186
301.5450446
300.6591977
300.268512
300.10454
300.0389476
300.0139018
300.0047596
300.0015649
300.0004946
300.0001505
300.0000441
300.0000125
300.0000034
300.0000009
300.0000002
300.0000001
300
300
300
300
300
300
300
300
300
300
300
300
300
300
300
300
444.1779328
446.3014306
452.1252261
464.230498
486.7030127
527.3346057
600.759181
649.9547109
631.5073524
543.5838196
467.7894789
408.8914101
366.7676791
338.7497806
321.3148879
311.1251077
305.5157717
302.600566
301.1673019
300.4994169
300.2039072
300.0795471
300.0296876
300.0106126
300.0036382
300.0011976
300.0003789
300.0001154
300.0000339
300.0000096
300.0000026
300.0000007
300.0000002
300
300
300
300
300
300
300
300
300
300
300
300
300
300
300
300
300
435.3786375
437.1072053
441.8276928
451.44184
468.9402553
500.0427217
547.0136722
526.9492897
512.7107639
460.9214305
413.2757578
374.7357003
346.4149675
327.2107276
315.0886853
307.926839
303.9510622
301.8710516
300.8429378
300.3617589
300.1480918
300.0579032
300.0216521
300.0077532
300.0026619
300.0008774
300.0002779
300.0000847
300.0000249
300.000007
300.0000019
300.0000005
300.0000001
300
300
300
300
300
300
300
300
300
300
300
300
300
300
300
300
300
426.9715203
428.406494
432.2990737
440.1132869
454.4468976
478.1641262
496.5102623
439.6602756
430.1661369
401.3606592
372.923244
348.9294695
330.7922439
318.2428375
310.2019725
305.3967293
302.7052772
301.2871655
300.58219
300.2506945
300.1029201
300.0403406
300.0151171
300.0054233
300.0018651
300.0006156
300.0001953
300.0000596
300.0000175
300.000005
300.0000014
300.0000004
300.0000001
300
300
300
300
300
300
300
300
300
300
300
300
300
300
300
300
300
419.1230506
420.3518621
423.6287084
430.1984801
441.8567765
456.7655879
453.3023207
382.2185907
376.4156338
361.1214652
344.9012006
330.6281764
319.5302692
311.694214
306.5965935
303.5144343
301.7721472
300.84736
300.3848661
300.1663151
300.0684872
300.0269151
300.0101092
300.003634
300.0012519
300.0004139
300.0001315
300.0000402
300.0000118
300.0000034
300.0000009
300.0000002
300.0000001
300
300
300
300
300
300
300
300
300
300
300
300
300
300
300
300
300
411.9059552
412.9888146
415.8307492
421.5605942
430.4001763
435.5761814
418.6540002
346.8382422
343.3218236
335.4451109
326.5309028
318.3772058
311.8666573
307.1793328
304.0845951
302.1916873
301.1117747
300.534288
300.243714
300.1057059
300.0436672
300.0172083
300.006479
300.002334
300.0008056
300.0002668
300.0000849
300.000026
300.0000077
300.0000022
300.0000006
300.0000002
300
300
300
300
300
300
300
300
300
300
300
300
300
300
300
300
300
300
405.3182761
406.2874089
408.8068369
413.5192636
418.8763337
416.3530584
392.0226836
326.1801855
323.8902391
319.8677201
315.0991505
310.5991056
306.9225608
304.2287711
302.4256202
301.3105497
300.6687179
300.3229841
300.1479649
300.0644162
300.0266967
300.0105505
300.0039822
300.0014377
300.0004972
300.0001649
300.0000526
300.0000161
300.0000048
300.0000014
300.0000004
300.0000001
300
300
300
300
300
300
300
300
300
300
300
300
300
300
300
300
300
300
399.3192836
400.208985
402.4749732
406.0905238
407.5807516
399.5890016
371.9244816
314.5717637
312.9183548
310.8261802
308.312092
305.8952032
303.8871016
302.3946793
301.3837916
300.7524798
300.3861067
300.1873914
300.0862103
300.0376701
300.0156627
300.0062075
300.0023489
300.00085
300.0002945
300.0000979
300.0000312
300.0000096
300.0000028
300.0000008
300.0000002
300.0000001
300
300
300
300
300
300
300
300
300
300
300
300
300
300
300
300
300
300
393.8589167
394.6899522
396.5621071
398.6647599
396.8137615
385.1284777
356.6489159
308.1988399
306.9142289
305.775637
304.4494685
303.1746379
302.107357
301.3068799
300.7598767
300.4155338
300.2142919
300.1044712
300.0482545
300.0211599
300.0088257
300.0035077
300.0013307
300.0004826
300.0001676
300.0000558
300.0000178
300.0000055
300.0000016
300.0000005
300.0000001
300
300
300
300
300
300
300
300
300
300
300
300
300
300
300
300
300
300
300
388.8820855
389.6017707
391.0386651
391.2941878
386.658488
372.5861468
344.7585221
304.7333904
303.7067473
303.045065
302.3324915
301.6640309
301.1075144
300.6894823
300.4026207
300.2211246
300.1145086
300.0560419
300.0259779
300.0114287
300.0047811
300.0019053
300.0007246
300.0002634
300.0000916
300.0000306
300.0000098
300.000003
300.0000009
300.0000003
300.0000001
300
300
300
300
300
300
300
300
300
300
300
300
300
300
300
300
300
300
300
384.3815646
384.9944408
385.6027398
383.993773
377.1219646
361.6352873
335.3806521
302.8473127
302.022344
301.6078682
301.2098086
300.8555643
300.5674889
300.3531684
300.2065155
300.1136817
300.059031
300.0289743
300.0134697
300.0059424
300.0024925
300.0009958
300.0003795
300.0001382
300.0000482
300.0000161
300.0000052
300.0000016
300.0000005
300.0000001
300
300
300
300
300
300
300
300
300
300
300
300
300
300
300
300
300
300
300
300
380.3074161
380.6224922
380.1288741
376.7923153
368.2270185
352.1469533
328.2269643
301.808222
301.1454537
300.866306
300.6304427
300.4365904
300.2860021
300.1767752
300.1030364
300.0566658
300.0294386
300.0144684
300.0067382
300.0029787
300.001252
300.0005012
300.0001914
300.0000699
300.0000244
300.0000082
300.0000026
300.0000008
300.0000002
300.0000001
300
300
300
300
300
300
300
300
300
300
300
300
300
300
300
300
300
300
300
300
376.4371544
376.2079684
374.5220883
369.7020233
359.9693642
343.9795366
322.8800221
301.2285805
300.6886875
300.4877154
300.3372273
300.2250288
300.1436962
300.0873381
300.0503738
300.0275335
300.0142583
300.0069989
300.0032595
300.001442
300.0006069
300.0002433
300.0000931
300.000034
300.0000119
300.000004
300.0000013
300.0000004
300.0000001
300
300
300
300
300
300
300
300
300
300
300
300
300
300
300
300
300
300
300
300
300
372.4487212
371.5408652
368.6996462
362.6649044
352.203963
336.7712178
318.85185
300.8911486
300.4453645
300.2930958
300.1897207
300.1198722
300.0733804
300.0432414
300.024407
300.0131495
300.0067475
300.0032941
300.0015297
300.0006759
300.0002844
300.0001141
300.0000437
300.000016
300.0000056
300.0000019
300.0000006
300.0000002
300.0000001
300
300
300
300
300
300
300
300
300
300
300
300
300
300
300
300
300
300
300
300
300
368.0798393
366.4608618
362.5350678
355.4658962
344.5149877
330.0998129
315.364462
300.6710607
300.3073277
300.1891342
300.1141615
300.0674873
300.038967
300.0218909
300.0119114
300.006249
300.0031482
300.0015184
300.0006997
300.0003078
300.0001292
300.0000518
300.0000198
300.0000073
300.0000025
300.0000009
300.0000003
300.0000001
300
300
300
300
300
300
300
300
300
300
300
300
300
300
300
300
300
300
300
300
300
300
363.101926
360.7660656
355.7908998
347.7643257
336.5682911
323.9861453
312.1433101
300.5084379
300.220388
300.1288849
300.0732248
300.0405174
300.0218876
300.0115606
300.0059676
300.0030026
300.0014663
300.0006918
300.0003141
300.0001368
300.0000571
300.0000228
300.0000087
300.0000032
300.0000011
300.0000004
300.0000001
300
300
300
300
300
300
300
300
300
300
300
300
300
300
300
300
300
300
300
300
300
300
300
357.1404527
354.062582
348.0305272
339.2092628
328.5498873
318.3442084
309.202117
300.3762427
300.1581193
300.0894247
300.0486277
300.0254958
300.0129484
300.0064083
300.0031069
300.001479
300.0006904
300.0003147
300.0001394
300.0000597
300.0000246
300.0000098
300.0000037
300.0000014
300.0000005
300.0000002
300.0000001
300
300
300
300
300
300
300
300
300
300
300
300
300
300
300
300
300
300
300
300
300
300
300
349.3390388
345.5027196
338.6092918
329.7930533
320.8137886
313.1106368
306.4788493
300.2615425
300.1079216
300.0598015
300.0316277
300.015978
300.0077411
300.0036242
300.0016545
300.0007421
300.0003283
300.0001432
300.0000613
300.0000256
300.0000104
300.0000041
300.0000015
300.0000006
300.0000002
300.0000001
300
300
300
300
300
300
300
300
300
300
300
300
300
300
300
300
300
300
300
300
300
300
300
300
337.6554567
333.2713183
326.4786109
319.3548098
313.134204
308.1599271
303.9556666
300.1573593
300.0636319
300.0347488
300.0180694
300.0089254
300.0041963
300.0018912
300.0008252
300.0003524
300.0001484
300.0000619
300.0000255
300.0000104
300.0000041
300.0000016
300.0000006
300.0000002
300.0000001
300
300
300
300
300
300
300
300
300
300
300
300
300
300
300
300
300
300
300
300
300
300
300
300
300
317.6263848
314.220245
310.1873221
307.058241
304.767307
302.9632208
301.4389642
300.0557057
300.0214145
300.0114972
300.0059122
300.0028869
300.0013376
300.0005915
300.0002521
300.0001047
300.0000428
300.0000174
300.000007
300.0000028
300.0000011
300.0000004
300.0000002
300.0000001
300
300
300
300
300
300
300
300
300
300
300
300
300
300
300
300
300
300
300
300
300
300
300
300
300
300
)
;

boundaryField
{
    lowerWall
    {
        type            fixedValue;
        value           uniform 300;
    }
    atmosphere
    {
        type            zeroGradient;
    }
    rightWall
    {
        type            empty;
    }
    leftWall
    {
        type            empty;
    }
    frontAndBack
    {
        type            fixedValue;
        value           uniform 300;
    }
}


// ************************************************************************* //
