/*--------------------------------*- C++ -*----------------------------------*\
  =========                 |
  \\      /  F ield         | OpenFOAM: The Open Source CFD Toolbox
   \\    /   O peration     | Website:  https://openfoam.org
    \\  /    A nd           | Version:  6
     \\/     M anipulation  |
\*---------------------------------------------------------------------------*/
FoamFile
{
    version     2.0;
    format      ascii;
    class       volVectorField;
    location    "0.1";
    object      U;
}
// * * * * * * * * * * * * * * * * * * * * * * * * * * * * * * * * * * * * * //

dimensions      [0 1 -1 0 0 0 0];

internalField   nonuniform List<vector> 
2500
(
(0 -1.141981228 -0.6696265547)
(0 0.09005675026 -0.3047528706)
(0 0.2335389346 -0.1154660854)
(0 0.2807969214 -0.03560531862)
(0 0.2590184913 -0.002576578247)
(0 0.2094040183 0.02963516811)
(0 0.03354167118 0.06194596761)
(0 -0.0009051245632 0.004099635979)
(0 -3.709195757e-14 2.163674899e-17)
(0 -7.378002452e-14 -3.164900855e-16)
(0 -7.274654431e-14 -6.249011096e-16)
(0 -7.12119263e-14 -9.098141513e-16)
(0 -6.913842338e-14 -1.163409223e-15)
(0 -6.659526489e-14 -1.379446811e-15)
(0 -6.366146098e-14 -1.554054426e-15)
(0 -6.042131845e-14 -1.685808191e-15)
(0 -5.695977391e-14 -1.775499e-15)
(0 -5.335837126e-14 -1.825724165e-15)
(0 -4.969213366e-14 -1.840402199e-15)
(0 -4.602740992e-14 -1.824284249e-15)
(0 -4.242065073e-14 -1.782513221e-15)
(0 -3.89179895e-14 -1.720260253e-15)
(0 -3.555546141e-14 -1.64245011e-15)
(0 -3.235968433e-14 -1.553573789e-15)
(0 -2.934883745e-14 -1.457578149e-15)
(0 -2.653379785e-14 -1.357818194e-15)
(0 -2.391932502e-14 -1.257056601e-15)
(0 -2.150521353e-14 -1.157496041e-15)
(0 -1.928736033e-14 -1.060832013e-15)
(0 -1.72587156e-14 -9.683164131e-16)
(0 -1.541010292e-14 -8.808246026e-16)
(0 -1.373090675e-14 -7.989209455e-16)
(0 -1.220963355e-14 -7.229196395e-16)
(0 -1.083435772e-14 -6.529390543e-16)
(0 -9.593066071e-15 -5.889488305e-16)
(0 -8.473915397e-15 -5.308096907e-16)
(0 -7.465417337e-15 -4.783063696e-16)
(0 -6.55656358e-15 -4.311743189e-16)
(0 -5.736903114e-15 -3.891209715e-16)
(0 -4.996581599e-15 -3.518423696e-16)
(0 -4.326351342e-15 -3.190359361e-16)
(0 -3.717558881e-15 -2.904100998e-16)
(0 -3.162115843e-15 -2.656914077e-16)
(0 -2.652457541e-15 -2.446296726e-16)
(0 -2.181492768e-15 -2.270016354e-16)
(0 -1.742547308e-15 -2.126135888e-16)
(0 -1.329302716e-15 -2.013034988e-16)
(0 -9.357303076e-16 -1.929436881e-16)
(0 -5.560159699e-16 -1.874474184e-16)
(0 -1.844537061e-16 -1.847930981e-16)
(0 -1.082927546 -1.071597903)
(0 -0.4880727413 -0.6211339132)
(0 -0.166042563 -0.2122511837)
(0 -0.007045909393 -0.02543047528)
(0 0.02680079464 0.05122494716)
(0 0.05051257745 0.1212076293)
(0 -0.01964062666 0.1510387051)
(0 -3.503731932e-05 0.006248005051)
(0 -3.741410428e-14 2.979541533e-17)
(0 -7.441709629e-14 -9.658325449e-16)
(0 -7.333986838e-14 -1.898153527e-15)
(0 -7.175043441e-14 -2.760800072e-15)
(0 -6.960805604e-14 -3.527831295e-15)
(0 -6.69859101e-14 -4.179826305e-15)
(0 -6.396782236e-14 -4.705084248e-15)
(0 -6.064276302e-14 -5.099566604e-15)
(0 -5.709968988e-14 -5.366053884e-15)
(0 -5.342327446e-14 -5.512822865e-15)
(0 -4.969069374e-14 -5.552117375e-15)
(0 -4.596952094e-14 -5.498631564e-15)
(0 -4.231662673e-14 -5.368157617e-15)
(0 -3.877792639e-14 -5.176483531e-15)
(0 -3.538877495e-14 -4.938571045e-15)
(0 -3.217481237e-14 -4.66800358e-15)
(0 -2.915308186e-14 -4.376669487e-15)
(0 -2.63332763e-14 -4.074634326e-15)
(0 -2.371900287e-14 -3.770153849e-15)
(0 -2.130898894e-14 -3.469783281e-15)
(0 -1.90981807e-14 -3.178545579e-15)
(0 -1.707870819e-14 -2.900129388e-15)
(0 -1.524070745e-14 -2.63709526e-15)
(0 -1.357300179e-14 -2.391075463e-15)
(0 -1.206365166e-14 -2.162958254e-15)
(0 -1.070038691e-14 -1.953051642e-15)
(0 -9.470936708e-15 -1.761224731e-15)
(0 -8.363272936e-15 -1.587026757e-15)
(0 -7.365781966e-15 -1.429785215e-15)
(0 -6.467378182e-15 -1.288685191e-15)
(0 -5.657571165e-15 -1.162832351e-15)
(0 -4.926496564e-15 -1.05130205e-15)
(0 -4.264919072e-15 -9.531769266e-16)
(0 -3.664214353e-15 -8.675751551e-16)
(0 -3.116335416e-15 -7.936712271e-16)
(0 -2.613767769e-15 -7.307109174e-16)
(0 -2.149476684e-15 -6.780218239e-16)
(0 -1.716849171e-15 -6.350207013e-16)
(0 -1.309632815e-15 -6.012187496e-16)
(0 -9.218742272e-16 -5.762262966e-16)
(0 -5.478653799e-16 -5.597594844e-16)
(0 -1.817993859e-16 -5.516559237e-16)
(0 -1.140620355 -1.327759869)
(0 -0.829933783 -1.038299956)
(0 -0.3998346582 -0.5298741001)
(0 -0.144950105 -0.1495504168)
(0 -0.09048419432 0.01363968995)
(0 -0.06153708658 0.1189639075)
(0 -0.02606416386 0.1336955075)
(0 0.0004266748289 -0.002239966902)
(0 -3.80596869e-14 -1.287286956e-17)
(0 -7.569204286e-14 -1.654819567e-15)
(0 -7.454151184e-14 -3.240958207e-15)
(0 -7.284160406e-14 -4.707404497e-15)
(0 -7.055744961e-14 -6.007294155e-15)
(0 -6.777251785e-14 -7.106954845e-15)
(0 -6.458120128e-14 -7.986912916e-15)
(0 -6.108228808e-14 -8.641356925e-15)
(0 -5.737303017e-14 -9.076378387e-15)
(0 -5.354443475e-14 -9.307461643e-15)
(0 -4.967794236e-14 -9.356691799e-15)
(0 -4.584345016e-14 -9.250057859e-15)
(0 -4.209850269e-14 -9.015103335e-15)
(0 -3.848840293e-14 -8.679055211e-15)
(0 -3.504698146e-14 -8.267464415e-15)
(0 -3.179778277e-14 -7.803323768e-15)
(0 -2.87554682e-14 -7.306591068e-15)
(0 -2.592728221e-14 -6.794029667e-15)
(0 -2.331447397e-14 -6.279279283e-15)
(0 -2.091360526e-14 -5.773079589e-15)
(0 -1.871770644e-14 -5.28358314e-15)
(0 -1.671726528e-14 -4.816709186e-15)
(0 -1.4901049e-14 -4.376503695e-15)
(0 -1.325676974e-14 -3.965482599e-15)
(0 -1.177160973e-14 -3.584944451e-15)
(0 -1.04326242e-14 -3.235245556e-15)
(0 -9.227041187e-15 -2.916035441e-15)
(0 -8.14247588e-15 -2.626453717e-15)
(0 -7.167075771e-15 -2.365291285e-15)
(0 -6.289610717e-15 -2.131119876e-15)
(0 -5.499519973e-15 -1.922394267e-15)
(0 -4.786926174e-15 -1.737531512e-15)
(0 -4.142624447e-15 -1.574971215e-15)
(0 -3.558053182e-15 -1.4332205e-15)
(0 -3.025251606e-15 -1.310886834e-15)
(0 -2.536808138e-15 -1.206701407e-15)
(0 -2.085802551e-15 -1.119535337e-15)
(0 -1.665744234e-15 -1.048410545e-15)
(0 -1.270508311e-15 -9.925067693e-16)
(0 -8.942710424e-16 -9.51165621e-16)
(0 -5.31445597e-16 -9.238910248e-16)
(0 -1.763501454e-16 -9.103391184e-16)
(0 -1.07751841 -1.400908501)
(0 -1.053698169 -1.365697485)
(0 -0.6385002057 -0.9052519248)
(0 -0.2789935751 -0.3690144669)
(0 -0.07247243626 -0.02128387766)
(0 -0.08016118548 0.06277715287)
(0 -0.005667255559 0.06929922396)
(0 0.0002892171478 -0.006164558456)
(0 -3.907144049e-14 -3.320617732e-17)
(0 -7.765415213e-14 -2.40541788e-15)
(0 -7.639245331e-14 -4.70336179e-15)
(0 -7.451677036e-14 -6.820486853e-15)
(0 -7.200760639e-14 -8.686898879e-15)
(0 -6.896552886e-14 -1.025369825e-14)
(0 -6.550222444e-14 -1.149417341e-14)
(0 -6.173222849e-14 -1.240249688e-14)
(0 -5.77657946e-14 -1.299057896e-14)
(0 -5.370358787e-14 -1.328390176e-14)
(0 -4.963328996e-14 -1.331708725e-14)
(0 -4.562793248e-14 -1.312976804e-14)
(0 -4.174562408e-14 -1.276310985e-14)
(0 -3.803028747e-14 -1.225713834e-14)
(0 -3.45130435e-14 -1.164887605e-14)
(0 -3.121393902e-14 -1.097120255e-14)
(0 -2.814378776e-14 -1.025230496e-14)
(0 -2.530596452e-14 -9.515573994e-15)
(0 -2.269805279e-14 -8.779810075e-15)
(0 -2.03132928e-14 -8.059624633e-15)
(0 -1.81418103e-14 -7.365946191e-15)
(0 -1.617162875e-14 -6.70656469e-15)
(0 -1.438948087e-14 -6.086668348e-15)
(0 -1.278144254e-14 -5.509344134e-15)
(0 -1.133341462e-14 -4.97602578e-15)
(0 -1.00314779e-14 -4.48688241e-15)
(0 -8.862144869e-15 -4.041147102e-15)
(0 -7.81252878e-15 -3.637388612e-15)
(0 -6.870448124e-15 -3.273731691e-15)
(0 -6.024481164e-15 -2.948032471e-15)
(0 -5.263982801e-15 -2.658015595e-15)
(0 -4.579073511e-15 -2.40137952e-15)
(0 -3.96060806e-15 -2.175875831e-15)
(0 -3.400129972e-15 -1.979367767e-15)
(0 -2.889816324e-15 -1.809872374e-15)
(0 -2.422416273e-15 -1.665590049e-15)
(0 -1.991185821e-15 -1.54492454e-15)
(0 -1.589820603e-15 -1.446495914e-15)
(0 -1.212387892e-15 -1.369148394e-15)
(0 -8.532584826e-16 -1.311954456e-15)
(0 -5.070388773e-16 -1.27421586e-15)
(0 -1.682474795e-16 -1.255462314e-15)
(0 -0.8855705999 -1.306500064)
(0 -1.125130264 -1.539305844)
(0 -0.840297228 -1.28556476)
(0 -0.4667113977 -0.7396956345)
(0 -0.08609110577 -0.1605704366)
(0 -0.02756949417 0.03551644279)
(0 0.001263642625 0.0321761089)
(0 6.443182109e-05 -0.005387505526)
(0 -4.046948266e-14 -3.154510831e-17)
(0 -8.038347882e-14 -3.250214583e-15)
(0 -7.895658081e-14 -6.346544035e-15)
(0 -7.682514115e-14 -9.184176366e-15)
(0 -7.399066101e-14 -1.166600398e-14)
(0 -7.057979238e-14 -1.372665977e-14)
(0 -6.672999991e-14 -1.533349493e-14)
(0 -6.257869364e-14 -1.648380806e-14)
(0 -5.825443505e-14 -1.719949053e-14)
(0 -5.387094303e-14 -1.752045123e-14)
(0 -4.952380864e-14 -1.749797655e-14)
(0 -4.528947276e-14 -1.718881946e-14)
(0 -4.122587299e-14 -1.665044098e-14)
(0 -3.737416913e-14 -1.593752898e-14)
(0 -3.376104567e-14 -1.509971813e-14)
(0 -3.040121168e-14 -1.418032494e-14)
(0 -2.729983965e-14 -1.321587048e-14)
(0 -2.445478733e-14 -1.22361673e-14)
(0 -2.185852461e-14 -1.126477567e-14)
(0 -1.949974138e-14 -1.031967303e-14)
(0 -1.736464649e-14 -9.414019763e-15)
(0 -1.543798744e-14 -8.556939805e-15)
(0 -1.370382844e-14 -7.75426322e-15)
(0 -1.214612718e-14 -7.00920004e-15)
(0 -1.074914801e-14 -6.322930548e-15)
(0 -9.497745523e-15 -5.69510811e-15)
(0 -8.37754739e-15 -5.124277608e-15)
(0 -7.37506047e-15 -4.608216588e-15)
(0 -6.477719629e-15 -4.144208234e-15)
(0 -5.673894621e-15 -3.729255914e-15)
(0 -4.952867022e-15 -3.360248813e-15)
(0 -4.30478641e-15 -3.03408744e-15)
(0 -3.720612694e-15 -2.747776823e-15)
(0 -3.192049725e-15 -2.498494137e-15)
(0 -2.711473888e-15 -2.283636452e-15)
(0 -2.271860304e-15 -2.100853352e-15)
(0 -1.866708416e-15 -1.948068249e-15)
(0 -1.489968087e-15 -1.823491496e-15)
(0 -1.135966854e-15 -1.725627716e-15)
(0 -7.993385082e-16 -1.653279198e-15)
(0 -4.749534551e-16 -1.605546841e-15)
(0 -1.575965992e-16 -1.581830223e-15)
(0 -0.5977873907 -1.073702945)
(0 -1.036286549 -1.509901751)
(0 -0.9472279189 -1.544316121)
(0 -0.6653920963 -1.147588245)
(0 -0.2364413768 -0.4857237725)
(0 0.03127164724 0.004036189037)
(0 0.0005058438236 0.03624970711)
(0 -9.911136476e-05 -0.005081370839)
(0 -4.2311079e-14 -2.847625856e-17)
(0 -8.398961292e-14 -4.230407512e-15)
(0 -8.232641509e-14 -8.248354501e-15)
(0 -7.98362303e-14 -1.190351216e-14)
(0 -7.655008979e-14 -1.506611737e-14)
(0 -7.263301981e-14 -1.765329223e-14)
(0 -6.825937272e-14 -1.962921547e-14)
(0 -6.359822409e-14 -2.099965972e-14)
(0 -5.880243777e-14 -2.180306685e-14)
(0 -5.400207389e-14 -2.210040857e-14)
(0 -4.930165819e-14 -2.196554453e-14)
(0 -4.478039691e-14 -2.147710591e-14)
(0 -4.04943336e-14 -2.071233068e-14)
(0 -3.647956462e-14 -1.974284983e-14)
(0 -3.275583947e-14 -1.863217627e-14)
(0 -2.933009138e-14 -1.743454189e-14)
(0 -2.619963012e-14 -1.619471573e-14)
(0 -2.33548697e-14 -1.494847669e-14)
(0 -2.078155852e-14 -1.372347607e-14)
(0 -1.846253689e-14 -1.254029193e-14)
(0 -1.637907708e-14 -1.141353618e-14)
(0 -1.45118722e-14 -1.035292432e-14)
(0 -1.28417411e-14 -9.364254498e-15)
(0 -1.135010987e-14 -8.45026954e-15)
(0 -1.001932269e-14 -7.611393441e-15)
(0 -8.832824965e-15 -6.846345337e-15)
(0 -7.775253347e-15 -6.152640718e-15)
(0 -6.832459406e-15 -5.526992898e-15)
(0 -5.991487451e-15 -4.965628904e-15)
(0 -5.240521743e-15 -4.464533663e-15)
(0 -4.568814326e-15 -4.01963535e-15)
(0 -3.966601522e-15 -3.626943303e-15)
(0 -3.425014757e-15 -3.282648337e-15)
(0 -2.9359896e-15 -2.983193783e-15)
(0 -2.492175539e-15 -2.725324109e-15)
(0 -2.08684807e-15 -2.506116748e-15)
(0 -1.713823965e-15 -2.32300165e-15)
(0 -1.36738007e-15 -2.173772121e-15)
(0 -1.042175594e-15 -2.056589774e-15)
(0 -7.331776075e-16 -1.969985769e-15)
(0 -4.355899022e-16 -1.912860052e-15)
(0 -1.445308619e-16 -1.88448007e-15)
(0 -0.2842991704 -0.7617692369)
(0 -0.8221571546 -1.29819979)
(0 -0.9386080222 -1.626477113)
(0 -0.807113494 -1.482245046)
(0 -0.4252970564 -0.8767202533)
(0 -0.03007986078 -0.1517331498)
(0 0.007531754216 0.0551948997)
(0 -0.0004912686642 -0.006454004189)
(0 -4.468210665e-14 -3.511628112e-17)
(0 -8.862583907e-14 -5.404347256e-15)
(0 -8.662968546e-14 -1.051285236e-14)
(0 -8.364290403e-14 -1.511516649e-14)
(0 -7.974044108e-14 -1.904142612e-14)
(0 -7.514289047e-14 -2.219096857e-14)
(0 -7.00763674e-14 -2.453025182e-14)
(0 -6.475254502e-14 -2.608243598e-14)
(0 -5.93551839e-14 -2.691264423e-14)
(0 -5.403342071e-14 -2.71125479e-14)
(0 -4.890050598e-14 -2.678669414e-14)
(0 -4.40362589e-14 -2.604175709e-14)
(0 -3.94916169e-14 -2.497896668e-14)
(0 -3.529401472e-14 -2.36894099e-14)
(0 -3.145273773e-14 -2.22516427e-14)
(0 -2.796375114e-14 -2.07309957e-14)
(0 -2.481377445e-14 -1.918001466e-14)
(0 -2.198354766e-14 -1.763958319e-14)
(0 -1.945033985e-14 -1.614038999e-14)
(0 -1.718980149e-14 -1.470450708e-14)
(0 -1.517727889e-14 -1.334692849e-14)
(0 -1.338870576e-14 -1.207698227e-14)
(0 -1.180117366e-14 -1.089957269e-14)
(0 -1.039326612e-14 -9.816238902e-15)
(0 -9.145223803e-15 -8.826034556e-15)
(0 -8.038992799e-15 -7.926243289e-15)
(0 -7.058194951e-15 -7.112949659e-15)
(0 -6.188048656e-15 -6.381486795e-15)
(0 -5.415260393e-15 -5.726781306e-15)
(0 -4.727901067e-15 -5.143614277e-15)
(0 -4.115276662e-15 -4.626814914e-15)
(0 -3.567799398e-15 -4.17140102e-15)
(0 -3.076863175e-15 -3.772678131e-15)
(0 -2.634725496e-15 -3.42630708e-15)
(0 -2.234396853e-15 -3.12834788e-15)
(0 -1.869537846e-15 -2.875286252e-15)
(0 -1.534363788e-15 -2.664047824e-15)
(0 -1.223556211e-15 -2.492003892e-15)
(0 -9.321805018e-16 -2.356971818e-15)
(0 -6.556087859e-16 -2.257212378e-15)
(0 -3.894477567e-16 -2.191425854e-15)
(0 -1.292166177e-16 -2.158748225e-15)
(0 -0.02446031679 -0.4360171398)
(0 -0.5422289412 -0.9599572917)
(0 -0.8316763928 -1.522161266)
(0 -0.8718503183 -1.682742986)
(0 -0.5970924131 -1.259381255)
(0 -0.1793718374 -0.457066423)
(0 0.01304538836 0.03530704871)
(0 -0.0009774552394 -0.01017153145)
(0 -4.769793121e-14 -6.695045141e-17)
(0 -9.449945934e-14 -6.855256549e-15)
(0 -9.203723433e-14 -1.32833838e-14)
(0 -8.836480406e-14 -1.900253014e-14)
(0 -8.362589187e-14 -2.379311685e-14)
(0 -7.81218455e-14 -2.753862086e-14)
(0 -7.215084014e-14 -3.021817763e-14)
(0 -6.59806165e-14 -3.188705553e-14)
(0 -5.983254968e-14 -3.265246187e-14)
(0 -5.38761238e-14 -3.265043408e-14)
(0 -4.823086738e-14 -3.202695432e-14)
(0 -4.297266945e-14 -3.092431244e-14)
(0 -3.814198641e-14 -2.947243183e-14)
(0 -3.375224063e-14 -2.778424664e-14)
(0 -2.979742527e-14 -2.5954053e-14)
(0 -2.625846335e-14 -2.405784202e-14)
(0 -2.310821761e-14 -2.215481521e-14)
(0 -2.031524503e-14 -2.028949469e-14)
(0 -1.784648241e-14 -1.849402923e-14)
(0 -1.566907539e-14 -1.679044648e-14)
(0 -1.375155226e-14 -1.519271078e-14)
(0 -1.206451641e-14 -1.370852064e-14)
(0 -1.058099773e-14 -1.234082778e-14)
(0 -9.276571732e-15 -1.108908792e-14)
(0 -8.129327076e-15 -9.950268842e-15)
(0 -7.119740067e-15 -8.91964762e-15)
(0 -6.230496852e-15 -7.991430126e-15)
(0 -5.446291054e-15 -7.159224306e-15)
(0 -4.753614933e-15 -6.416395273e-15)
(0 -4.140555351e-15 -5.756326546e-15)
(0 -3.596601069e-15 -5.172607836e-15)
(0 -3.112464738e-15 -4.659166219e-15)
(0 -2.679920817e-15 -4.210354353e-15)
(0 -2.291659349e-15 -3.82100666e-15)
(0 -1.941154712e-15 -3.486472137e-15)
(0 -1.622548014e-15 -3.202630586e-15)
(0 -1.330541604e-15 -2.965897524e-15)
(0 -1.060304064e-15 -2.773221836e-15)
(0 -8.073840802e-16 -2.622079276e-15)
(0 -5.676316437e-16 -2.510464134e-15)
(0 -3.371257488e-16 -2.436880836e-15)
(0 -1.118532324e-16 -2.400336722e-15)
(0 0.114416145 -0.1532912269)
(0 -0.2601170934 -0.5760884028)
(0 -0.6550673888 -1.260318595)
(0 -0.8623083436 -1.724758118)
(0 -0.7308612756 -1.580349647)
(0 -0.3346027241 -0.8174977304)
(0 0.007956460117 -0.02571965401)
(0 -0.0008133604907 -0.01420192568)
(0 -5.152373577e-14 -1.143363535e-16)
(0 -1.018948652e-13 -8.70211949e-15)
(0 -9.877695905e-14 -1.676250899e-14)
(0 -9.415263708e-14 -2.381793898e-14)
(0 -8.827653181e-14 -2.958941251e-14)
(0 -8.156795126e-14 -3.395184007e-14)
(0 -7.442480207e-14 -3.691652276e-14)
(0 -6.718682925e-14 -3.859500255e-14)
(0 -6.011856245e-14 -3.91596639e-14)
(0 -5.340791317e-14 -3.880979071e-14)
(0 -4.717438434e-14 -3.774643846e-14)
(0 -4.148173641e-14 -3.615619155e-14)
(0 -3.63515511e-14 -3.420229483e-14)
(0 -3.17756359e-14 -3.202118349e-14)
(0 -2.772633311e-14 -2.972256475e-14)
(0 -2.416451335e-14 -2.739157775e-14)
(0 -2.104542712e-14 -2.509197152e-14)
(0 -1.832276168e-14 -2.286960194e-14)
(0 -1.595129164e-14 -2.07558263e-14)
(0 -1.388848304e-14 -1.87705704e-14)
(0 -1.209535305e-14 -1.692497148e-14)
(0 -1.053682276e-14 -1.522357946e-14)
(0 -9.181740933e-15 -1.366614256e-14)
(0 -8.002707182e-15 -1.224902486e-14)
(0 -6.975783506e-15 -1.09663109e-14)
(0 -6.080154082e-15 -9.810651478e-15)
(0 -5.297771637e-15 -8.773900403e-15)
(0 -4.613013803e-15 -7.847585209e-15)
(0 -4.012362634e-15 -7.023248176e-15)
(0 -3.484113629e-15 -6.292687387e-15)
(0 -3.018116335e-15 -5.648121811e-15)
(0 -2.605545915e-15 -5.082299533e-15)
(0 -2.238703616e-15 -4.588564104e-15)
(0 -1.91084328e-15 -4.160890688e-15)
(0 -1.616020779e-15 -3.793901016e-15)
(0 -1.348963232e-15 -3.482864034e-15)
(0 -1.104955038e-15 -3.22368748e-15)
(0 -8.797379631e-16 -3.012904323e-15)
(0 -6.694227994e-16 -2.847657023e-15)
(0 -4.704103459e-16 -2.725681787e-15)
(0 -2.793203446e-16 -2.645294398e-15)
(0 -9.267250374e-17 -2.605378761e-15)
(0 0.1296741009 -0.03961523277)
(0 -0.03747758641 -0.2408884941)
(0 -0.4389495911 -0.8971425724)
(0 -0.7848898201 -1.606185854)
(0 -0.8195875156 -1.802193417)
(0 -0.4860868413 -1.212788047)
(0 -0.01828243768 -0.2267459631)
(0 0.0007374442358 -0.01325838419)
(0 -5.638533088e-14 -2.162902339e-16)
(0 -1.112304654e-13 -1.113791582e-14)
(0 -1.071530538e-13 -2.124577127e-14)
(0 -1.011917076e-13 -2.991653559e-14)
(0 -9.375979295e-14 -3.679407295e-14)
(0 -8.544895575e-14 -4.176230324e-14)
(0 -7.679400262e-14 -4.490076663e-14)
(0 -6.822375764e-14 -4.641663342e-14)
(0 -6.004733784e-14 -4.658139152e-14)
(0 -5.246289836e-14 -4.568269865e-14)
(0 -4.557726822e-14 -4.399293396e-14)
(0 -3.942852581e-14 -4.175185452e-14)
(0 -3.400697835e-14 -3.915950617e-14)
(0 -2.927251055e-14 -3.63757507e-14)
(0 -2.516781952e-14 -3.352355185e-14)
(0 -2.162787013e-14 -3.069402234e-14)
(0 -1.858624181e-14 -2.795196389e-14)
(0 -1.597909981e-14 -2.534117262e-14)
(0 -1.374745087e-14 -2.288914781e-14)
(0 -1.183822057e-14 -2.06110705e-14)
(0 -1.020456133e-14 -1.851304952e-14)
(0 -8.805687489e-15 -1.659470034e-14)
(0 -7.606443126e-15 -1.485114978e-14)
(0 -6.576740071e-15 -1.327456549e-14)
(0 -5.690953697e-15 -1.185530266e-14)
(0 -4.927329575e-15 -1.058274889e-14)
(0 -4.267430583e-15 -9.445934999e-15)
(0 -3.695638827e-15 -8.433966944e-15)
(0 -3.198717111e-15 -7.536323008e-15)
(0 -2.765428985e-15 -6.743050645e-15)
(0 -2.386213216e-15 -6.044889787e-15)
(0 -2.052907032e-15 -5.433343119e-15)
(0 -1.758511972e-15 -4.900708887e-15)
(0 -1.496996261e-15 -4.440088012e-15)
(0 -1.263128058e-15 -4.045374284e-15)
(0 -1.052334479e-15 -3.711234202e-15)
(0 -8.605818929e-16 -3.433081264e-15)
(0 -6.84273607e-16 -3.207048252e-15)
(0 -5.20161544e-16 -3.029960076e-15)
(0 -3.652690185e-16 -2.899309015e-15)
(0 -2.168227229e-16 -2.813233671e-15)
(0 -7.193759521e-17 -2.770502517e-15)
(0 0.1192078457 0.004416260984)
(0 0.0890917112 -0.02667831287)
(0 -0.2092757757 -0.50426713)
(0 -0.6416355973 -1.342757971)
(0 -0.8503658681 -1.887986392)
(0 -0.6348933895 -1.596105498)
(0 -0.1067686204 -0.5733232258)
(0 0.003783765954 -0.01742238156)
(0 -6.252791938e-14 -8.530249626e-16)
(0 -1.230432603e-13 -1.446106987e-14)
(0 -1.175555788e-13 -2.716475956e-14)
(0 -1.097009388e-13 -3.780716074e-14)
(0 -1.001222995e-13 -4.590706333e-14)
(0 -8.967464494e-14 -5.140189532e-14)
(0 -7.907913224e-14 -5.45072853e-14)
(0 -6.886745414e-14 -5.558929181e-14)
(0 -5.938462768e-14 -5.506664623e-14)
(0 -5.08194556e-14 -5.334684135e-14)
(0 -4.324354021e-14 -5.079094266e-14)
(0 -3.664830863e-14 -4.769898734e-14)
(0 -3.097544728e-14 -4.430830918e-14)
(0 -2.613968158e-14 -4.079892068e-14)
(0 -2.204460475e-14 -3.730200133e-14)
(0 -1.859292539e-14 -3.390910108e-14)
(0 -1.56925774e-14 -3.068077077e-14)
(0 -1.325994561e-14 -2.765403865e-14)
(0 -1.122118952e-14 -2.484856743e-14)
(0 -9.512384742e-15 -2.227154696e-14)
(0 -8.078982898e-15 -1.992147845e-14)
(0 -6.874923022e-15 -1.779103766e-14)
(0 -5.861606076e-15 -1.586920007e-14)
(0 -5.006860053e-15 -1.414278975e-14)
(0 -4.28396691e-15 -1.25975874e-14)
(0 -3.670786426e-15 -1.121910633e-14)
(0 -3.148989689e-15 -9.993122166e-15)
(0 -2.703401812e-15 -8.906021987e-15)
(0 -2.321446335e-15 -7.945023081e-15)
(0 -1.992680408e-15 -7.09829886e-15)
(0 -1.708408809e-15 -6.355039873e-15)
(0 -1.461365016e-15 -5.705470531e-15)
(0 -1.245448509e-15 -5.140836628e-15)
(0 -1.055508677e-15 -4.653374602e-15)
(0 -8.871669692e-16 -4.236270447e-15)
(0 -7.366702124e-16 -3.883613904e-15)
(0 -6.007690884e-16 -3.590351934e-15)
(0 -4.76616775e-16 -3.35224428e-15)
(0 -3.616835622e-16 -3.16582305e-15)
(0 -2.536839404e-16 -3.028357645e-15)
(0 -1.505138461e-16 -2.937825924e-15)
(0 -4.994134984e-17 -2.892892187e-15)
(0 0.1318072185 0.01251786913)
(0 0.1362477268 0.05689538927)
(0 0.003486073145 -0.1567300328)
(0 -0.4352661398 -0.9644676269)
(0 -0.8057188071 -1.807747421)
(0 -0.775419571 -1.909295176)
(0 -0.2793692844 -1.012641547)
(0 0.006940948063 -0.06366381883)
(0 -6.998936847e-14 -7.625202459e-16)
(0 -1.377512051e-13 -1.879593867e-14)
(0 -1.304991447e-13 -3.514175884e-14)
(0 -1.199340114e-13 -4.823819097e-14)
(0 -1.073545275e-13 -5.762373351e-14)
(0 -9.404917773e-14 -6.343017676e-14)
(0 -8.098139911e-14 -6.613692336e-14)
(0 -6.878311856e-14 -6.636665778e-14)
(0 -5.780488739e-14 -6.474929185e-14)
(0 -4.81871948e-14 -6.184738271e-14)
(0 -3.99294142e-14 -5.812532136e-14)
(0 -3.294589234e-14 -5.394512958e-14)
(0 -2.710691169e-14 -4.957606677e-14)
(0 -2.22662027e-14 -4.520981978e-14)
(0 -1.827799993e-14 -4.097658688e-14)
(0 -1.500663956e-14 -3.69597277e-14)
(0 -1.233117937e-14 -3.320806648e-14)
(0 -1.014689647e-14 -2.974570636e-14)
(0 -8.364959181e-15 -2.657957996e-14)
(0 -6.911131583e-15 -2.370510083e-14)
(0 -5.724052031e-15 -2.111029839e-14)
(0 -4.753409111e-15 -1.877878279e-14)
(0 -3.958195218e-15 -1.669182854e-14)
(0 -3.305127399e-15 -1.482980765e-14)
(0 -2.767270274e-15 -1.31731498e-14)
(0 -2.322864345e-15 -1.170296407e-14)
(0 -1.954346242e-15 -1.040142147e-14)
(0 -1.647539741e-15 -9.251971246e-15)
(0 -1.390993984e-15 -8.239443654e-15)
(0 -1.175445777e-15 -7.350076945e-15)
(0 -9.933848874e-16 -6.571495481e-15)
(0 -8.38703787e-16 -5.892657828e-15)
(0 -7.064160425e-16 -5.303788018e-15)
(0 -5.9243008e-16 -4.796299077e-15)
(0 -4.933673599e-16 -4.362714987e-15)
(0 -4.064159651e-16 -3.996595241e-15)
(0 -3.292122695e-16 -3.692464696e-15)
(0 -2.597447235e-16 -3.445750468e-15)
(0 -1.962749083e-16 -3.252726926e-15)
(0 -1.372718923e-16 -3.110469423e-15)
(0 -8.135726542e-17 -3.016817101e-15)
(0 -2.700385823e-17 -2.970344931e-15)
(0 0.1696298867 0.0162973158)
(0 0.1650924531 0.07553393383)
(0 0.1583587648 0.07275823026)
(0 -0.1791240371 -0.5205240173)
(0 -0.6646390236 -1.543242367)
(0 -0.8874982346 -2.092747807)
(0 -0.5171875524 -1.494042576)
(0 0.007055813246 -0.2062122288)
(0 -8.05550257e-14 -9.927124464e-16)
(0 -1.579120776e-13 -2.512463236e-14)
(0 -1.469978311e-13 -4.636427735e-14)
(0 -1.321829134e-13 -6.237714657e-14)
(0 -1.153142852e-13 -7.291776438e-14)
(0 -9.818783479e-14 -7.85574369e-14)
(0 -8.201561327e-14 -8.024353588e-14)
(0 -6.747982263e-14 -7.899145971e-14)
(0 -5.48653526e-14 -7.571697076e-14)
(0 -4.419548511e-14 -7.11685877e-14)
(0 -3.534128708e-14 -6.591829416e-14)
(0 -2.809905404e-14 -6.038053071e-14)
(0 -2.224013748e-14 -5.484131611e-14)
(0 -1.754020169e-14 -4.948793912e-14)
(0 -1.379451267e-14 -4.44349716e-14)
(0 -1.082440499e-14 -3.974528017e-14)
(0 -8.478556055e-15 -3.544614718e-14)
(0 -6.631459089e-15 -3.154119816e-14)
(0 -5.18058399e-15 -2.80189824e-14)
(0 -4.043103167e-15 -2.485900033e-14)
(0 -3.152664856e-15 -2.203584342e-14)
(0 -2.456453176e-15 -1.95219713e-14)
(0 -1.912630938e-15 -1.728952364e-14)
(0 -1.488181305e-15 -1.531145935e-14)
(0 -1.157123328e-15 -1.356223502e-14)
(0 -8.990580948e-16 -1.201817254e-14)
(0 -6.979968688e-16 -1.065762174e-14)
(0 -5.414240008e-16 -9.4609911e-15)
(0 -4.195520337e-16 -8.41069668e-15)
(0 -3.247322349e-16 -7.49106338e-15)
(0 -2.50989692e-16 -6.688201219e-15)
(0 -1.93657553e-16 -5.989871604e-15)
(0 -1.490897588e-16 -5.385353255e-15)
(0 -1.144356457e-16 -4.865313793e-15)
(0 -8.746313294e-17 -4.421690625e-15)
(0 -6.641992174e-17 -4.047583133e-15)
(0 -4.992431578e-17 -3.737157173e-15)
(0 -3.687900443e-17 -3.485562231e-15)
(0 -2.640251684e-17 -3.288861207e-15)
(0 -1.777411556e-17 -3.143972604e-15)
(0 -1.038935453e-17 -3.048624801e-15)
(0 -3.469180229e-18 -3.001322095e-15)
(0 0.2169077972 0.02215007721)
(0 0.2055902082 0.07325397228)
(0 0.2302895399 0.1543470507)
(0 0.08475936997 -0.09736307185)
(0 -0.4098655962 -1.100298907)
(0 -0.9284455224 -2.081814925)
(0 -0.7775266471 -1.956294504)
(0 0.000257930698 -0.5000871624)
(0 -9.445997898e-14 -3.376710448e-15)
(0 -1.84285877e-13 -3.523589857e-14)
(0 -1.677516589e-13 -6.280903518e-14)
(0 -1.464874984e-13 -8.198427602e-14)
(0 -1.235348179e-13 -9.311085737e-14)
(0 -1.013749492e-13 -9.763792685e-14)
(0 -8.141542192e-14 -9.728881899e-14)
(0 -6.425655344e-14 -9.363950889e-14)
(0 -4.998201538e-14 -8.795942553e-14)
(0 -3.838851819e-14 -8.119249048e-14)
(0 -2.914135722e-14 -7.39993789e-14)
(0 -2.186891428e-14 -6.681787673e-14)
(0 -1.62143201e-14 -5.99210916e-14)
(0 -1.185985819e-14 -5.346590775e-14)
(0 -8.535340977e-15 -4.753025835e-14)
(0 -6.017815146e-15 -4.214039273e-14)
(0 -4.127097354e-15 -3.729011953e-14)
(0 -2.719731685e-15 -3.295400217e-14)
(0 -1.682761356e-15 -2.909617592e-14)
(0 -9.279926011e-16 -2.567608558e-14)
(0 -3.870230019e-16 -2.265210548e-14)
(0 -7.089328684e-18 -1.998373152e-14)
(0 2.523167329e-16 -1.763282809e-14)
(0 4.221612146e-16 -1.556426202e-14)
(0 5.260165406e-16 -1.374614851e-14)
(0 5.817489356e-16 -1.214985928e-14)
(0 6.028351969e-16 -1.074989207e-14)
(0 5.993853204e-16 -9.523665445e-15)
(0 5.78933736e-16 -8.451279914e-15)
(0 5.470496833e-16 -7.515270679e-15)
(0 5.07806889e-16 -6.700367084e-15)
(0 4.641441774e-16 -5.99326743e-15)
(0 4.181417686e-16 -5.382433515e-15)
(0 3.712325497e-16 -4.857906666e-15)
(0 3.243632999e-16 -4.411145515e-15)
(0 2.781174863e-16 -4.034884835e-15)
(0 2.328086323e-16 -3.723014325e-15)
(0 1.885512429e-16 -3.470476056e-15)
(0 1.453147193e-16 -3.273179275e-15)
(0 1.029645137e-16 -3.12793136e-15)
(0 6.129324358e-17 -3.032383891e-15)
(0 2.029884805e-17 -2.984992963e-15)
(0 0.2673707236 0.02586712031)
(0 0.2616889885 0.07492659583)
(0 0.2713737103 0.1536390006)
(0 0.2699320536 0.1738728628)
(0 -0.0510799166 -0.5302159236)
(0 -0.8376301595 -1.816863082)
(0 -1.000228718 -2.318822129)
(0 -0.01551203203 -0.9866970751)
(0 -1.137636403e-13 -7.410446606e-15)
(0 -2.19800237e-13 -5.173758088e-14)
(0 -1.937462086e-13 -8.764336166e-14)
(0 -1.624847356e-13 -1.096345649e-13)
(0 -1.309679361e-13 -1.199020812e-13)
(0 -1.023657964e-13 -1.215953238e-13)
(0 -7.801719531e-14 -1.176358329e-13)
(0 -5.815042917e-14 -1.103199568e-13)
(0 -4.241833419e-14 -1.012901474e-13)
(0 -3.023543849e-14 -9.164368404e-14)
(0 -2.096667333e-14 -8.206967777e-14)
(0 -1.402076673e-14 -7.297108707e-14)
(0 -8.888168496e-15 -6.455966085e-14)
(0 -5.149368445e-15 -5.692460063e-14)
(0 -2.468997656e-15 -5.007992382e-14)
(0 -5.8426617e-16 -4.399600935e-14)
(0 7.078345066e-16 -3.861998844e-14)
(0 1.562484524e-15 -3.388853875e-14)
(0 2.0973326e-15 -2.973563912e-14)
(0 2.400967275e-15 -2.60970552e-14)
(0 2.539689204e-15 -2.291274978e-14)
(0 2.562824211e-15 -2.012800642e-14)
(0 2.506838557e-15 -1.769377918e-14)
(0 2.39849828e-15 -1.556659609e-14)
(0 2.257279413e-15 -1.37082223e-14)
(0 2.097198338e-15 -1.208520964e-14)
(0 1.928196969e-15 -1.066840866e-14)
(0 1.757188159e-15 -9.432486758e-15)
(0 1.588842732e-15 -8.355476127e-15)
(0 1.426180596e-15 -7.41836274e-15)
(0 1.271013557e-15 -6.604720435e-15)
(0 1.124276016e-15 -5.90038987e-15)
(0 9.862710059e-16 -5.293199872e-15)
(0 8.568523545e-16 -4.772727708e-15)
(0 7.35558698e-16 -4.330094408e-15)
(0 6.217112681e-16 -3.957791353e-15)
(0 5.144844627e-16 -3.649534648e-15)
(0 4.12956046e-16 -3.400144151e-15)
(0 3.161421798e-16 -3.2054445e-15)
(0 2.230212677e-16 -3.062185891e-15)
(0 1.325490421e-16 -2.967982793e-15)
(0 4.39217481e-17 -2.921269191e-15)
(0 0.3188703709 0.02600823633)
(0 0.3192901979 0.07815611782)
(0 0.3207197554 0.1318276843)
(0 0.3423709898 0.2435772716)
(0 0.3310674582 0.02847603343)
(0 -0.5617892711 -1.273291461)
(0 -1.115459527 -2.472681788)
(0 -0.0368946858 -1.665917739)
(0 -1.421866663e-13 -1.618868353e-14)
(0 -2.690953711e-13 -8.083549893e-14)
(0 -2.256486429e-13 -1.263799518e-13)
(0 -1.787462179e-13 -1.490037268e-13)
(0 -1.354955768e-13 -1.552686969e-13)
(0 -9.910870092e-14 -1.512085693e-13)
(0 -7.014005493e-14 -1.413424968e-13)
(0 -4.791086793e-14 -1.287170623e-13)
(0 -3.130574263e-14 -1.152395639e-13)
(0 -1.916804857e-14 -1.020238517e-13)
(0 -1.046876024e-14 -8.966551764e-14)
(0 -4.358897365e-15 -7.843774618e-14)
(0 -1.678336615e-16 -6.842224048e-14)
(0 2.619878844e-15 -5.959312866e-14)
(0 4.393250305e-15 -5.186894352e-14)
(0 5.442120238e-15 -4.514378494e-14)
(0 5.98037324e-15 -3.930529986e-14)
(0 6.164617637e-15 -3.424451658e-14)
(0 6.108722194e-15 -2.986076582e-14)
(0 5.894896732e-15 -2.606371994e-14)
(0 5.582025784e-15 -2.277380389e-14)
(0 5.211881278e-15 -1.992173753e-14)
(0 4.813727057e-15 -1.744766013e-14)
(0 4.407718088e-15 -1.530009715e-14)
(0 4.007402991e-15 -1.343491369e-14)
(0 3.62156258e-15 -1.181432946e-14)
(0 3.255558082e-15 -1.040602956e-14)
(0 2.912317852e-15 -9.182382259e-15)
(0 2.593057755e-15 -8.119762387e-15)
(0 2.297805375e-15 -7.197972613e-15)
(0 2.025779759e-15 -6.399752339e-15)
(0 1.775664741e-15 -5.710363232e-15)
(0 1.54580393e-15 -5.117240908e-15)
(0 1.334338013e-15 -4.609703271e-15)
(0 1.139299655e-15 -4.178707167e-15)
(0 9.586772469e-16 -3.816646237e-15)
(0 7.904558348e-16 -3.517183971e-15)
(0 6.326413904e-16 -3.275117003e-15)
(0 4.832729789e-16 -3.086264594e-15)
(0 3.404262209e-16 -2.947381044e-15)