/*--------------------------------*- C++ -*----------------------------------*\
  =========                 |
  \\      /  F ield         | OpenFOAM: The Open Source CFD Toolbox
   \\    /   O peration     | Website:  https://openfoam.org
    \\  /    A nd           | Version:  6
     \\/     M anipulation  |
\*---------------------------------------------------------------------------*/
FoamFile
{
    version     2.0;
    format      ascii;
    class       volScalarField;
    location    "0.1";
    object      ViscousDissipation;
}
// * * * * * * * * * * * * * * * * * * * * * * * * * * * * * * * * * * * * * //

dimensions      [1 -1 -3 0 0 0 0];

internalField   nonuniform List<scalar> 
2500
(
23.84527021
14.13164928
0.7816146696
0.1010030145
0.1100646373
0.4014977513
0.4768082393
0.01593482331
0.02526145415
3.480270745e-24
3.733762792e-26
7.396968751e-26
1.195734895e-25
1.672401596e-25
2.117070992e-25
2.487847678e-25
2.757647345e-25
2.914902592e-25
2.96166001e-25
2.910131147e-25
2.778746369e-25
2.588511462e-25
2.360134493e-25
2.112087405e-25
1.859549788e-25
1.614062037e-25
1.383674675e-25
1.173393057e-25
9.857560955e-26
8.21435072e-26
6.797822832e-26
5.592938875e-26
4.579756801e-26
3.736157143e-26
3.039757839e-26
2.469169463e-26
2.00474352e-26
1.628950526e-26
1.326501498e-26
1.084302055e-26
8.913060167e-27
7.383164151e-27
6.177668829e-27
5.235049221e-27
4.50590335e-27
3.951164383e-27
3.540583353e-27
3.251519746e-27
3.068144416e-27
3.172135648e-27
4.570667368
7.093355347
2.072881374
0.32442329
0.1241889746
0.1277450847
0.118030213
0.05982955697
0.05339413445
3.551600589e-24
5.573616885e-26
9.196976595e-26
1.371388091e-25
1.841273948e-25
2.276279335e-25
2.634645949e-25
2.889871748e-25
3.031233556e-25
3.06169412e-25
2.99429851e-25
2.848130807e-25
2.644631997e-25
2.404734022e-25
2.146956788e-25
1.886399212e-25
1.634439524e-25
1.39892464e-25
1.184644999e-25
9.939334907e-26
8.272760424e-26
6.838656575e-26
5.620663116e-26
4.597771145e-26
3.747019322e-26
3.045373489e-26
2.470946916e-26
2.003716778e-26
1.625874926e-26
1.321926854e-26
1.078627802e-26
8.848222784e-27
7.312342931e-27
6.102405843e-27
5.156477604e-27
4.424860424e-27
3.868264826e-27
3.456242752e-27
3.165859206e-27
2.981803059e-27
4.605461843e-27
1.277077922
5.80607201
5.319499311
1.285120441
0.1356555596
0.03913960137
0.08376425238
0.05002767826
0.00740942732
3.699340386e-24
9.462227601e-26
1.30219646e-25
1.743966712e-25
2.198025495e-25
2.611005468e-25
2.941751435e-25
3.165142949e-25
3.272289919e-25
3.268070217e-25
3.167225697e-25
2.99013693e-25
2.759077883e-25
2.495377453e-25
2.217597496e-25
1.940625105e-25
1.675470774e-25
1.429539108e-25
1.207163659e-25
1.010245236e-25
8.388846941e-26
6.919464621e-26
5.675233797e-26
4.632967105e-26
3.767990562e-26
3.055947629e-26
2.473945821e-26
2.001207052e-26
1.6193621e-26
1.312503454e-26
1.067084692e-26
8.717314341e-27
7.170097459e-27
5.951829238e-27
4.999764058e-27
4.263625029e-27
3.703710916e-27
3.289287312e-27
2.997262609e-27
2.812186141e-27
7.387005018e-27
0.2207590989
2.386762724
6.812230538
4.242745623
0.8460266377
0.09849277921
0.09087783399
0.01269461464
0.05254293044
3.932480132e-24
1.597668735e-25
1.94008632e-25
2.361022985e-25
2.784290193e-25
3.156590114e-25
3.438226548e-25
3.606626586e-25
3.655988564e-25
3.594251016e-25
3.438753475e-25
3.211771295e-25
2.936713894e-25
2.635362009e-25
2.326193145e-25
2.023642033e-25
1.738053725e-25
1.47607854e-25
1.241295551e-25
1.034906756e-25
8.563994821e-26
7.041205622e-26
5.757395606e-26
4.686001486e-26
3.799711418e-26
3.072142594e-26
2.478868225e-26
1.997962456e-26
1.610206266e-26
1.299068461e-26
1.050548298e-26
8.529425578e-27
6.965805855e-27
5.735560904e-27
4.774735669e-27
4.03219527e-27
3.467635412e-27
3.049908107e-27
2.755660042e-27
2.56923456e-27
1.135091525e-26
0.9993643157
0.1223690074
4.951611378
7.438316735
3.055305945
0.2940108009
0.01277853327
0.002730722806
0.04018353437
4.275056668e-24
2.613493669e-25
2.926035136e-25
3.305190901e-25
3.67147048e-25
3.972803686e-25
4.172550047e-25
4.252450283e-25
4.211440404e-25
4.061843154e-25
3.824492976e-25
3.524028128e-25
3.18509593e-25
2.82976049e-25
2.476073967e-25
2.137590291e-25
1.82353757e-25
1.539380338e-25
1.287556517e-25
1.068238532e-25
8.800270649e-26
7.20532072e-26
5.868277158e-26
4.757874609e-26
3.843157397e-26
3.094963271e-26
2.486773446e-26
1.995105242e-26
1.599592216e-26
1.282864438e-26
1.030312389e-26
8.29793643e-27
6.713223314e-27
5.467669902e-27
4.495719834e-27
3.745105327e-27
3.17472661e-27
2.752884589e-27
2.455852814e-27
2.267661775e-27
1.626156397e-26
2.58259865
0.9953326438
1.488674583
6.762242282
6.823067583
1.16042859
0.007677705095
0.003450457623
0.03589256171
4.758029645e-24
4.162938084e-25
4.412818082e-25
4.710568261e-25
4.973467874e-25
5.153271367e-25
5.219255021e-25
5.160148841e-25
4.981773572e-25
4.702285825e-25
4.346761428e-25
3.942350782e-25
3.514649758e-25
3.085441974e-25
2.671656454e-25
2.285239477e-25
1.933614956e-25
1.620452148e-25
1.346531721e-25
1.110574633e-25
9.09959464e-26
7.412984529e-26
6.008712171e-26
4.849312586e-26
3.899074286e-26
3.125238655e-26
2.498600166e-26
1.99368963e-26
1.588684796e-26
1.265156917e-26
1.007731401e-26
8.037160973e-27
6.427320767e-27
5.163680606e-27
4.178700583e-27
3.418713394e-27
2.841637951e-27
2.415093713e-27
2.114888512e-27
1.924668491e-27
2.182503535e-26
3.583106386
4.105340406
0.01530646694
3.591195939
8.600289219
3.390473959
0.06848227975
0.00842683709
0.05823671259
5.428421778e-24
6.5241528e-25
6.648494503e-25
6.790979365e-25
6.868160279e-25
6.840971797e-25
6.689579177e-25
6.413649368e-25
6.02851227e-25
5.559475745e-25
5.03608657e-25
4.487456167e-25
3.939104651e-25
3.411294405e-25
2.91856054e-25
2.470058658e-25
2.070374988e-25
1.720521302e-25
1.418926483e-25
1.162315726e-25
9.46428272e-26
7.665644742e-26
6.179763e-26
4.961264226e-26
3.968441274e-26
3.164047077e-26
2.515552036e-26
1.995047865e-26
1.578936725e-26
1.24750611e-26
9.844587166e-27
7.764425719e-27
6.126090228e-27
4.842137486e-27
3.842675499e-27
3.072382962e-27
2.488022277e-27
2.056411447e-27
1.75281198e-27
1.560423817e-27
2.770622316e-26
3.32520145
6.736302984
1.740125783
0.6975565348
7.188496843
6.709839419
0.7111148433
0.004408703887
0.1444022088
6.359762747e-24
1.015872577e-24
1.003835553e-24
9.888390368e-25
9.632954928e-25
9.252906832e-25
8.747712784e-25
8.133451057e-25
7.437640319e-25
6.693185575e-25
5.93301083e-25
5.186204586e-25
4.475853501e-25
3.818326492e-25
3.223594182e-25
2.696157543e-25
2.23623652e-25
1.840975027e-25
1.505517768e-25
1.223891542e-25
9.896760688e-26
7.964802363e-26
6.382546358e-26
5.09475619e-26
4.052343912e-26
3.21259897e-26
2.538985031e-26
2.000678865e-26
1.571976606e-26
1.231653237e-26
9.623308219e-27
7.498888093e-27
5.829340978e-27
4.523380991e-27
3.508413743e-27
2.727225081e-27
2.135258746e-27
1.698422142e-27
1.391358557e-27
1.196765385e-27
3.354819705e-26
2.381570934
6.634746545
5.338241086
0.1986036613
4.150237479
9.740033313
2.455924695
0.002333383495
0.2769384757
7.673203569e-24
1.585585914e-24
1.525797058e-24
1.455740608e-24
1.370405025e-24
1.271928568e-24
1.163535764e-24
1.04912483e-24
9.327858195e-25
8.183453391e-25
7.090251164e-25
6.072544887e-25
5.146279741e-25
4.319708352e-25
3.594681397e-25
2.968185796e-25
2.433854509e-25
1.983285556e-25
1.607098921e-25
1.295721938e-25
1.039929597e-25
8.311826571e-26
6.618101355e-26
5.25079251e-26
4.151890285e-26
3.272160052e-26
2.570331642e-26
2.012169959e-26
1.56952635e-26
1.219432821e-26
9.432742957e-27
7.260555289e-27
5.557671407e-27
4.228477396e-27
3.19734923e-27
2.404959919e-27
1.805287366e-27
1.363230762e-27
1.052751617e-27
8.559946578e-28
3.89931704e-26
0.4676677943
3.87672488
7.980455497
2.698798356
1.13645481
10.58846672
5.779968696
0.1392718373
0.2407441611
9.56323832e-24
2.497995899e-24
2.345869301e-24
2.171469887e-24
1.977583331e-24
1.774551176e-24
1.570831141e-24
1.373039751e-24
1.186138398e-24
1.013588603e-24
8.575044334e-25
7.188368436e-25
5.975922749e-25
4.930661999e-25
4.040675251e-25
3.291152445e-25
2.665974107e-25
2.148902361e-25
1.724404141e-25
1.378165534e-25
1.097365196e-25
8.707719164e-26
6.887222352e-26
5.430227445e-26
4.268105332e-26
3.343955489e-26
2.611007928e-26
2.03110286e-26
1.573304004e-26
1.21267146e-26
9.292002854e-27
7.069187457e-27
5.331334037e-27
3.978049945e-27
2.930382389e-27
2.126693584e-27
1.519365188e-27
1.072202974e-27
7.584318769e-28
5.596009815e-28
4.370399463e-26
0.01976302493
1.298120576
7.519650336
6.977770695
0.1479453464
8.030685521
9.725671788
0.9339994292
0.4522780072
1.224720568e-23
3.992364791e-24
3.667109571e-24
3.291198089e-24
2.896889836e-24
2.51094877e-24
2.148985479e-24
1.819358696e-24
1.525733839e-24
1.268753058e-24
1.047130988e-24
8.583990983e-25
6.994296211e-25
5.668089549e-25
4.570992223e-25
3.670131063e-25
2.935214616e-25
2.339102342e-25
1.858007946e-25
1.471453286e-25
1.162064803e-25
9.15281609e-26
7.190246386e-26
5.633602848e-26
4.401795708e-26
3.429048677e-26
2.662298287e-26
2.058939982e-26
1.584909295e-26
1.213071505e-26
9.218859304e-27
6.943089275e-27
5.169006147e-27
3.791031046e-27
2.726616674e-27
1.911641618e-27
1.296779375e-27
8.44670369e-28
5.277573829e-28
3.269585931e-28
4.738497131e-26
0.03720401835
0.1608667213
4.485068281
10.46765358
2.686706445
3.445941809
12.78742044
3.233809855
5.659176477
1.686557701e-23
6.611299511e-24
5.874967342e-24
5.085291045e-24
4.311327749e-24
3.601122373e-24
2.974591563e-24
2.435822737e-24
1.980692116e-24
1.601239117e-24
1.28809245e-24
1.031780506e-24
8.23409152e-25
6.549793436e-25
5.194993541e-25
4.109814999e-25
3.243767253e-25
2.554791323e-25
2.008197158e-25
1.575606211e-25
1.233962352e-25
9.646426188e-26
7.526795661e-26
5.860950729e-26
4.553386189e-26
3.528196128e-26
2.725220045e-26
2.096893891e-26
1.60569536e-26
1.222083763e-26
9.228474383e-27
6.897842032e-27
5.086522548e-27
3.683395811e-27
2.602093148e-27
1.775864893e-27
1.153584564e-27
6.966693514e-28
3.767438651e-28
1.740681244e-28
4.980073091e-26
0.08053928969
0.04252788771
1.456625671
10.42756862
8.703086896
0.2930213979
13.63650229
8.032162244
58.17855584
2.433989066e-23
1.148321842e-23
9.707103508e-24
8.029045584e-24
6.520091623e-24
5.229112473e-24
4.158415794e-24
3.287749705e-24
2.588784736e-24
2.032467657e-24
1.59229022e-24
1.245442209e-24
9.729411841e-25
7.593117097e-25
5.921036645e-25
4.613891496e-25
3.592996077e-25
2.796254558e-25
2.174816027e-25
1.690338602e-25
1.312781856e-25
1.018641751e-25
7.895483394e-26
6.111567952e-26
4.722733923e-26
3.641684609e-26
2.800374168e-26
2.145786456e-26
1.636633518e-26
1.240776377e-26
9.332122171e-27
6.945052364e-27
5.095648239e-27
3.66695586e-27
2.568602898e-27
1.731098149e-27
1.101445028e-27
6.397943604e-28
3.16926376e-28
1.124238985e-28
5.079195612e-26
0.0967961915
0.1353072228
0.1175537995
6.251617115
15.37123391
2.751636299
11.0303219
15.83704035
341.509545
3.671957551e-23
2.050093543e-23
1.646109101e-23
1.293111106e-23
1.000353775e-23
7.672196899e-24
5.857089445e-24
4.461952513e-24
3.39724557e-24
2.587637827e-24
1.972864496e-24
1.50603992e-24
1.151262623e-24
8.812836905e-25
6.755136545e-25
5.184219469e-25
3.982943026e-25
3.062861571e-25
2.357089912e-25
1.81495106e-25
1.397970356e-25
1.076877463e-25
8.293600747e-26
6.38377736e-26
4.908932837e-26
3.769161759e-26
2.887792718e-26
2.205907956e-26
1.678181158e-26
1.269709772e-26
9.535997854e-27
7.091213181e-27
5.202984817e-27
3.74830558e-27
2.632667853e-27
1.783760251e-27
1.146669343e-27
6.802520084e-28
3.544280051e-28
1.480923251e-28
5.028683682e-26
0.1058748164
0.1501514028
0.09526565307
1.59978038
16.86337666
13.17278442
5.469701779
25.49461078
1330.521472
6.037039932e-23
3.83333152e-23
2.872649044e-23
2.121337919e-23
1.553009785e-23
1.133919915e-23
8.284736872e-24
6.068778955e-24
4.461922573e-24
3.294390222e-24
2.443082932e-24
1.819653314e-24
1.360946822e-24
1.021819531e-24
7.699224663e-25
5.819827407e-25
4.411757332e-25
3.352741939e-25
2.553439455e-25
1.948221517e-25
1.48863132e-25
1.138716596e-25
8.716813557e-26
6.674697836e-26
5.110126951e-26
3.909476588e-26
2.98679788e-26
2.276889909e-26
1.730165578e-26
1.308829771e-26
9.840229276e-27
7.33678565e-27
5.409114254e-27
3.928019732e-27
2.79478471e-27
1.93423724e-27
1.289525644e-27
8.182018206e-28
4.893195689e-28
2.810841166e-28
4.830733679e-26
0.1106183906
0.1195582361
0.2027149115
0.005482899361
9.981385484
27.26248294
1.940940039
32.84464875
3795.464443
1.095656897e-22
7.522586746e-23
5.147701407e-23
3.531084524e-23
2.428878531e-23
1.680628051e-23
1.171747565e-23
8.238605776e-24
5.843082854e-24
4.179674711e-24
3.014332596e-24
2.190590574e-24
1.603221527e-24
1.180911222e-24
8.749081035e-25
6.515797285e-25
4.875096258e-25
3.662462848e-25
2.761304861e-25
2.088306694e-25
1.58346656e-25
1.203257585e-25
9.158908383e-26
6.98005362e-26
5.323357213e-26
4.060550723e-26
3.095890842e-26
2.357607855e-26
1.791698478e-26
1.357392255e-26
1.023821311e-26
7.675614491e-27
5.708083632e-27
4.200198537e-27
3.049021697e-27
2.176522526e-27
1.523917353e-27
1.047459962e-27
7.15344076e-28
5.05092417e-28
4.49696294e-26
0.1065342387
0.104746425
0.1529806929
0.2948194265
2.230004645
30.23898698
9.31152475
32.02545428
8316.236854
2.13458741e-22
1.526126006e-22
9.377771217e-23
5.91584015e-23
3.799535432e-23
2.481912303e-23
1.647627441e-23
1.11069036e-23
7.59574844e-24
5.264158849e-24
3.693059478e-24
2.619765483e-24
1.877125413e-24
1.357186291e-24
9.892143504e-25
7.262163542e-25
5.365574962e-25
3.986754435e-25
2.977007511e-25
2.232670445e-25
1.680737004e-25
1.269306996e-25
9.611636109e-26
7.294059041e-26
5.544470434e-26
4.219303924e-26
3.212690384e-26
2.446131249e-26
1.861136004e-26
1.413932443e-26
1.071639126e-26
8.094779087e-27
6.087322233e-27
4.552442123e-27
3.383042084e-27
2.498281492e-27
1.83748133e-27
1.355623727e-27
1.020060671e-27
8.076495298e-28
4.047841048e-26
0.09445677265
0.1007807142
0.0884028241
0.2733919329
0.03749112896
17.82770131
29.48444866
21.25283491
14456.49252
3.994841911e-22
3.115929151e-22
1.70714365e-22
9.84403476e-23
5.881033045e-23
3.619759096e-23
2.286648633e-23
1.478150909e-23
9.753088157e-24
6.554051367e-24
4.476807086e-24
3.102798174e-24
2.17860599e-24
1.547483946e-24
1.110554431e-24
8.043021052e-25
5.872371916e-25
4.318341592e-25
3.195681872e-25
2.37805811e-25
1.77825396e-25
1.335376909e-25
1.006470486e-25
7.609416527e-26
5.768119406e-26
4.381657015e-26
3.333940068e-26
2.539736075e-26
1.936097413e-26
1.476289758e-26
1.125455943e-26
8.574957874e-27
6.528056206e-27
4.966309424e-27
3.778601086e-27
2.881380315e-27
2.212142712e-27
1.724646791e-27
1.385434938e-27
1.170727088e-27
3.511520427e-26
0.08088585931
0.09006290158
0.07213387455
0.1322051879
0.3093164056
5.547593602
46.53150159
7.161823681
20409.89513
6.708332278e-22
6.171266925e-22
3.023120184e-22
1.594720816e-22
8.874080911e-23
5.156167394e-23
3.105831203e-23
1.929107869e-23
1.230414173e-23
8.03142944e-24
5.350009032e-24
3.628193752e-24
2.49974254e-24
1.746533204e-24
1.235484904e-24
8.836083615e-25
6.381113811e-25
4.647946902e-25
3.411312369e-25
2.520536218e-25
1.873412227e-25
1.399710245e-25
1.050596961e-25
7.91746135e-26
5.9878789e-26
4.542631024e-26
3.455598577e-26
2.634991491e-26
2.013551127e-26
1.541695e-26
1.182675876e-26
9.091343069e-27
7.006246672e-27
5.418278133e-27
4.212525259e-27
3.302881992e-27
2.625124649e-27
2.131859746e-27
1.788867431e-27
1.571769803e-27
2.922121402e-26
0.06837654725
0.07542678611
0.08344301007
0.08933820939
0.43378309
0.768189328
47.01578512
0.1948599912
23515.86332
1.384926071e-21
1.1209121e-21
5.013112511e-22
2.452621557e-22
1.283549185e-22
7.089466163e-23
4.093119114e-23
2.452728552e-23
1.517170912e-23
9.645673278e-24
6.280697338e-24
4.176123723e-24
2.828334909e-24
1.946845027e-24
1.359402538e-24
9.612944211e-25
6.874161256e-25
4.964524399e-25
3.61690539e-25
2.65561341e-25
1.963273885e-25
1.460339254e-25
1.092185126e-25
8.208474709e-26
6.196492244e-26
4.696552579e-26
3.573019886e-26
2.727924708e-26
2.089970378e-26
1.60692048e-26
1.240274431e-26
9.61508967e-27
7.494027051e-27
5.881174973e-27
4.658138421e-27
3.736469486e-27
3.050369637e-27
2.551390222e-27
2.204612974e-27
1.985114206e-27
2.317569934e-26
0.05443555017
0.05910791377
0.08533470623
0.07016827593
0.2814184859
0.5959410969
36.07172081
4.396353772
21775.81474
3.522344454e-21
1.775211276e-21
7.544984936e-22
3.510529509e-22
1.755873169e-22
9.318706763e-23
5.195883221e-23
3.020611146e-23
1.819936136e-23
1.130939519e-23
7.219483587e-24
4.718377567e-24
3.148102e-24
2.138924969e-24
1.476711069e-24
1.034024422e-24
7.331386864e-25
5.255764633e-25
3.804814419e-25
2.778450646e-25
2.044706392e-25
1.515178798e-25
1.129799201e-25
8.472167162e-26
6.386247598e-26
4.837362774e-26
3.681219099e-26
2.814258815e-26
2.161552381e-26
1.668486381e-26
1.294995794e-26
1.011522207e-26
7.961559891e-27
6.325994243e-27
5.087050311e-27
4.154210947e-27
3.460286463e-27
2.955895927e-27
2.605503648e-27
2.383705046e-27
1.737124799e-26
0.03814094059
0.04310776553
0.0698923776
0.08141151047
0.1153205326
1.601650551
25.90277763
13.90370129
16917.45163
6.569556939e-21
2.461222233e-21
1.026967383e-21
4.649439158e-22
2.257819224e-22
1.164218201e-22
6.320304716e-23
3.58690481e-23
2.115482918e-23
1.290162948e-23
8.101919465e-24
5.219935217e-24
3.439673162e-24
2.311879415e-24
1.581185878e-24
1.098185151e-24
7.731476026e-25
5.508876295e-25
3.967215595e-25
2.884156275e-25
2.114570846e-25
1.562150985e-25
1.162011886e-25
8.698308854e-26
6.549463602e-26
4.959011301e-26
3.775207179e-26
2.88970781e-26
2.224485942e-26
1.722908806e-26
1.343586478e-26
1.056086133e-26
8.379179467e-27
6.723973722e-27
5.471179506e-27
4.528540561e-27
3.82769805e-27
3.318487275e-27
2.964853144e-27
2.740987692e-27
1.21876108e-26
0.02171571668
0.02876959726
0.04688774414
0.1064472339
0.04475246606
2.416295515
15.85390905
25.26296102
10420.08084
7.819850896e-21
3.081878498e-21
1.279469938e-21
5.715391375e-22
2.725878984e-22
1.378455297e-22
7.341641033e-23
4.092920345e-23
2.3752857e-23
1.427971643e-23
8.854816409e-24
5.642367901e-24
3.682433822e-24
2.454425329e-24
1.666531477e-24
1.150197219e-24
8.05368736e-25
5.711599057e-25
4.096702996e-25
2.968145559e-25
2.169946698e-25
1.599331675e-25
1.187504721e-25
8.877455155e-26
6.679043633e-26
5.05590206e-26
3.850365496e-26
2.950303053e-26
2.275244212e-26
1.766968097e-26
1.383045354e-26
1.092358519e-26
8.719641959e-27
7.048757677e-27
5.78484689e-27
4.834296685e-27
4.127836134e-27
3.614688866e-27
3.258394181e-27
3.03282985e-27
7.965950504e-27
0.008562915675
0.01766167438
0.02597365004
0.1219670753
0.08498355278
2.568377625
8.530233313
35.23703241
4282.487798
6.408812274e-21
3.548191607e-21
1.473161896e-21
6.544324384e-22
3.09021187e-22
1.544199148e-22
8.124096323e-23
4.476199811e-23
2.569785636e-23
1.529984615e-23
9.406339492e-24
5.948886265e-24
3.857092704e-24
2.556217532e-24
1.727079437e-24
1.186888692e-24
8.279892662e-25
5.853342652e-25
4.186941745e-25
3.026527264e-25
2.208369589e-25
1.62510364e-25
1.205171984e-25
9.001691849e-26
6.76904068e-26
5.123343795e-26
3.902821499e-26
2.992717921e-26
2.310873332e-26
1.797971166e-26
1.410866184e-26
1.117970057e-26
8.960277795e-27
7.278453715e-27
6.006756242e-27
5.050641748e-27
4.34021351e-27
3.824275343e-27
3.466088023e-27
3.239313909e-27
4.985391667e-27
0.001455491479
0.01164256106
0.01526229015
0.120706729
0.171516272
2.345068323
6.591921281
40.11553428
520.6617765
4.553354255e-21
3.794643468e-21
1.577607184e-21
6.997501472e-22
3.290015012e-22
1.634865913e-22
8.549815454e-23
4.683344619e-23
2.674166249e-23
1.584356375e-23
9.698415393e-24
6.110268101e-24
3.948572402e-24
2.609287783e-24
1.75852014e-24
1.205875455e-24
8.396601167e-25
5.926292636e-25
4.233290371e-25
3.056466463e-25
2.228051798e-25
1.638297145e-25
1.214215304e-25
9.06530914e-26
6.815165098e-26
5.157952661e-26
3.929782211e-26
3.014554173e-26
2.329245405e-26
1.813979999e-26
1.425247644e-26
1.13122009e-26
9.084836591e-27
7.397388293e-27
6.121678339e-27
5.162689549e-27
4.450206765e-27
3.93282013e-27
3.573648613e-27
3.346245039e-27
3.443637058e-27
0.001455479361
0.01164254695
0.01526227529
0.1207066965
0.1715162659
2.345068158
6.591921286
40.11553308
520.6619695
4.553354075e-21
3.794643415e-21
1.577607152e-21
6.997501394e-22
3.290015055e-22
1.634865993e-22
8.549816232e-23
4.683345252e-23
2.674166725e-23
1.584356719e-23
9.698417833e-24
6.110269823e-24
3.948573618e-24
2.609288648e-24
1.75852076e-24
1.205875904e-24
8.396604463e-25
5.926295077e-25
4.233292196e-25
3.056467838e-25
2.228052841e-25
1.63829794e-25
1.214215911e-25
9.065313768e-26
6.815168614e-26
5.157955312e-26
3.929784184e-26
3.014555612e-26
2.32924642e-26
1.813980677e-26
1.425248054e-26
1.131220286e-26
9.084836854e-27
7.397387206e-27
6.121676187e-27
5.162686564e-27
4.450203142e-27
3.932816031e-27
3.573644178e-27
3.346240445e-27
3.443139136e-27
0.008562875663
0.01766162923
0.02597359749
0.1219669816
0.084983533
2.568377175
8.530232865
35.23702939
4282.488163
6.408811922e-21
3.548191431e-21
1.473161778e-21
6.544324048e-22
3.090211951e-22
1.544199363e-22
8.124098523e-23
4.476201635e-23
2.569787018e-23
1.529985619e-23
9.406346637e-24
5.948891316e-24
3.857096279e-24
2.556220078e-24
1.727081266e-24
1.18689002e-24
8.279902408e-25
5.853349881e-25
4.186947157e-25
3.02653135e-25
2.208372693e-25
1.625106008e-25
1.205173794e-25
9.001705671e-26
6.769051199e-26
5.12335174e-26
3.902827423e-26
2.992722249e-26
2.310876395e-26
1.797973223e-26
1.41086744e-26
1.117970673e-26
8.960278855e-27
7.278450723e-27
6.00675005e-27
5.050633054e-27
4.340202895e-27
3.824263295e-27
3.466074962e-27
3.239300364e-27
4.983903337e-27
0.02171563995
0.02876951359
0.04688763959
0.1064470903
0.04475240186
2.416294834
15.85390756
25.26295692
10420.08085
7.819850714e-21
3.081877995e-21
1.279469668e-21
5.71539052e-22
2.725878982e-22
1.378455583e-22
7.341644305e-23
4.092923155e-23
2.375287864e-23
1.427973229e-23
8.854827764e-24
5.642375961e-24
3.682439545e-24
2.454429416e-24
1.666534422e-24
1.150199364e-24
8.053703145e-25
5.711610799e-25
4.096711813e-25
2.968152233e-25
2.169951782e-25
1.599335564e-25
1.187507702e-25
8.877477988e-26
6.679061061e-26
5.055915266e-26
3.850375381e-26
2.95031031e-26
2.275249382e-26
1.766971603e-26
1.38304753e-26
1.092359633e-26
8.719644616e-27
7.048753578e-27
5.784837444e-27
4.834283052e-27
4.127819279e-27
3.614669604e-27
3.258373216e-27
3.032808062e-27
7.963488081e-27
0.03814081743
0.0431076336
0.0698922118
0.08141134401
0.1153203846
1.60165021
25.90277291
13.90369787
16917.4509
6.569555054e-21
2.461221169e-21
1.026966901e-21
4.649437543e-22
2.257819011e-22
1.164218485e-22
6.32030862e-23
3.586908335e-23
2.115485694e-23
1.290165006e-23
8.101934303e-24
5.219945804e-24
3.439680712e-24
2.31188483e-24
1.581189796e-24
1.098188016e-24
7.731497202e-25
5.508892115e-25
3.967227525e-25
2.884165344e-25
2.114577782e-25
1.562156313e-25
1.162015986e-25
8.698340395e-26
6.549487782e-26
4.959029712e-26
3.775221037e-26
2.889718055e-26
2.224493307e-26
1.722913869e-26
1.343589695e-26
1.056087872e-26
8.379185009e-27
6.723969805e-27
5.471168081e-27
4.52852324e-27
3.827676178e-27
3.318461996e-27
2.964825449e-27
2.74095881e-27
1.21842015e-26
0.05443537329
0.05910771644
0.08533446586
0.07016806116
0.2814182694
0.5959408522
36.07171311
4.396351294
21775.81379
3.522340131e-21
1.775209636e-21
7.544978112e-22
3.5105271e-22
1.755872678e-22
9.318709044e-23
5.195887374e-23
3.020615125e-23
1.819939344e-23
1.130941926e-23
7.219501063e-24
4.718390104e-24
3.148110985e-24
2.138931444e-24
1.476715778e-24
1.034027884e-24
7.331412601e-25
5.255783969e-25
3.804829083e-25
2.778461854e-25
2.044715011e-25
1.515185454e-25
1.12980435e-25
8.472206992e-26
6.386278309e-26
4.837386304e-26
3.681236936e-26
2.814272117e-26
2.161562054e-26
1.66849314e-26
1.295000211e-26
1.011524738e-26
7.961570035e-27
6.325992233e-27
5.087038618e-27
4.15419162e-27
3.460261224e-27
2.955866247e-27
2.605470811e-27
2.383670624e-27
1.736692994e-26
0.06837632061
0.07542649906
0.08344266664
0.08933778016
0.4337820064
0.7681899772
47.01577183
0.194859973
23515.86189
1.384923886e-21
1.120910271e-21
5.013104765e-22
2.452618554e-22
1.28354843e-22
7.0894677e-23
4.093123305e-23
2.452732796e-23
1.517174399e-23
9.645699667e-24
6.280716602e-24
4.176137604e-24
2.828344905e-24
1.946852268e-24
1.359407836e-24
9.612983418e-25
6.874190601e-25
4.964546598e-25
3.616922341e-25
2.655626455e-25
1.963283984e-25
1.460347103e-25
1.092191239e-25
8.208522304e-26
6.196529197e-26
4.696581104e-26
3.573041695e-26
2.727941138e-26
2.089982483e-26
1.606929097e-26
1.24028023e-26
9.615124877e-27
7.494043853e-27
5.881176952e-27
4.658128536e-27
3.736450205e-27
3.050343048e-27
2.551358122e-27
2.204576942e-27
1.985076151e-27
2.317052159e-26
0.08088562443
0.09006254298
0.07213343472
0.1322039305
0.3093148342
5.547599969
46.53148573
7.161826046
20409.89247
6.708326331e-22
6.171255895e-22
3.023112878e-22
1.594717456e-22
8.874071401e-23
5.156168411e-23
3.105835442e-23
1.929112294e-23
1.230417833e-23
8.031457175e-24
5.350029301e-24
3.628208391e-24
2.499753123e-24
1.746540914e-24
1.235490583e-24
8.836125952e-25
6.381145753e-25
4.647971264e-25
3.411331124e-25
2.520550767e-25
1.873423579e-25
1.399719137e-25
1.050603938e-25
7.917516091e-26
5.987921741e-26
4.542664377e-26
3.455624324e-26
2.635011111e-26
2.013565791e-26
1.541705646e-26
1.182683259e-26
9.091390373e-27
7.006272434e-27
5.418286454e-27
4.212519544e-27
3.302865102e-27
2.625099023e-27
2.131827501e-27
1.788830445e-27
1.571730308e-27
2.921523652e-26
0.09445664211
0.1007804145
0.08840225752
0.2733897733
0.03749177891
17.82771066
29.48444926
21.25282723
14456.48993
3.994850384e-22
3.115923833e-22
1.707136076e-22
9.843997133e-23
5.881022485e-23
3.619760222e-23
2.286653154e-23
1.478155535e-23
9.753125869e-24
6.554079671e-24
4.476827674e-24
3.102813034e-24
2.178616763e-24
1.547491837e-24
1.110560287e-24
8.043065087e-25
5.872405447e-25
4.318367408e-25
3.195701935e-25
2.378073817e-25
1.778266325e-25
1.335386679e-25
1.006478218e-25
7.609477712e-26
5.768167714e-26
4.381694981e-26
3.333969685e-26
2.539758921e-26
1.93611475e-26
1.476302601e-26
1.125465114e-26
8.575019557e-27
6.528093362e-27
4.966326605e-27
3.778602093e-27
2.88136837e-27
2.212120582e-27
1.724616903e-27
1.385399468e-27
1.170688569e-27
3.510849776e-26
0.1065344068
0.1047464041
0.1529801662
0.294819185
2.229993516
30.23904425
9.311546883
32.02552586
8316.238418
2.134639983e-22
1.526118752e-22
9.377672025e-23
5.915798063e-23
3.799525761e-23
2.481914659e-23
1.647632655e-23
1.110695265e-23
7.595786857e-24
5.264187058e-24
3.693079772e-24
2.61978008e-24
1.877136017e-24
1.357194104e-24
9.892201966e-25
7.262207939e-25
5.365609129e-25
3.986781027e-25
2.977028396e-25
2.232686965e-25
1.680750139e-25
1.269317474e-25
9.611719814e-26
7.294125899e-26
5.544523728e-26
4.219346234e-26
3.212723757e-26
2.446157324e-26
1.8611561e-26
1.41394763e-26
1.071650277e-26
8.094857389e-27
6.087373233e-27
4.552470742e-27
3.383052463e-27
2.498277166e-27
1.837465367e-27
1.355598847e-27
1.020029339e-27
8.076145508e-28
4.047105631e-26
0.1106190849
0.1195588678
0.2027155763
0.005482646453
9.981384466
27.2625523
1.940918543
32.84469726
3795.44646
1.09562496e-22
7.522178252e-23
5.147560474e-23
3.531044766e-23
2.42887386e-23
1.680633164e-23
1.171753894e-23
8.238658056e-24
5.843121405e-24
4.179702131e-24
3.014352014e-24
2.190604472e-24
1.603231644e-24
1.180918728e-24
8.749137758e-25
6.51584086e-25
4.875130202e-25
3.662489591e-25
2.761326116e-25
2.088323699e-25
1.583480227e-25
1.203268601e-25
9.158997274e-26
6.98012533e-26
5.323414954e-26
4.06059705e-26
3.095927808e-26
2.357637116e-26
1.791721383e-26
1.357409905e-26
1.023834612e-26
7.675711483e-27
5.708150819e-27
4.200241122e-27
3.049044093e-27
2.176528526e-27
1.523910286e-27
1.047442812e-27
7.153195867e-28
5.050636259e-28
4.496171926e-26
0.105876171
0.1501533214
0.09526661267
1.599789132
16.86339821
13.1727542
5.469717203
25.49458785
1330.528237
6.036579734e-23
3.833152055e-23
2.872576822e-23
2.12132422e-23
1.553015592e-23
1.133928947e-23
8.284812415e-24
6.06883342e-24
4.461960123e-24
3.294416005e-24
2.443100895e-24
1.819666118e-24
1.360956182e-24
1.02182654e-24
7.699278285e-25
5.819869167e-25
4.41179032e-25
3.352768287e-25
2.553460673e-25
1.948238703e-25
1.488645294e-25
1.138727985e-25
8.716906435e-26
6.674773545e-26
5.110188553e-26
3.909526553e-26
2.986838216e-26
2.276922257e-26
1.730191289e-26
1.308849958e-26
9.840385104e-27
7.336903104e-27
5.40919974e-27
3.928078647e-27
2.794821658e-27
1.934256213e-27
1.289530177e-27
8.181951269e-28
4.89304647e-28
2.810641821e-28
4.829897227e-26
0.09679805719
0.1353096833
0.1175554074
6.251658329
15.3712314
2.751598277
11.03038293
15.83704813
341.5088507
3.671734005e-23
2.049878725e-23
1.646066699e-23
1.293119544e-23
1.00036928e-23
7.672319407e-24
5.85717191e-24
4.462005886e-24
3.397280283e-24
2.587660965e-24
1.972880436e-24
1.506051293e-24
1.15127101e-24
8.812900562e-25
6.755186018e-25
5.184258637e-25
3.982974471e-25
3.062887075e-25
2.357110745e-25
1.81496816e-25
1.397984433e-25
1.076889068e-25
8.293696442e-26
6.383856201e-26
4.908997674e-26
3.769214927e-26
2.887836142e-26
2.205943233e-26
1.678209614e-26
1.269732512e-26
9.536177324e-27
7.091352441e-27
5.203090363e-27
3.748382911e-27
2.632721684e-27
1.783794697e-27
1.146688086e-27
6.802584388e-28
3.544253401e-28
1.480838892e-28
5.02781288e-26
0.08054105911
0.04252889984
1.45664612
10.42761428
8.70304705
0.2930327649
13.63654937
8.032125023
58.17895488
2.433101941e-23
1.148214206e-23
9.707434015e-24
8.029409941e-24
6.5203252e-24
5.229248644e-24
4.158495004e-24
3.287797179e-24
2.58881444e-24
2.03248716e-24
1.592303661e-24
1.245451901e-24
9.729484511e-25
7.593173344e-25
5.921081259e-25
4.613927524e-25
3.593025545e-25
2.796278869e-25
2.174836196e-25
1.690355391e-25
1.312795856e-25
1.01865343e-25
7.895580787e-26
6.111649062e-26
4.72280134e-26
3.641740496e-26
2.800420339e-26
2.145824435e-26
1.63666459e-26
1.240801624e-26
9.33232549e-27
6.94521422e-27
5.095775124e-27
3.667053294e-27
2.568675629e-27
1.731150337e-27
1.101480426e-27
6.39816472e-28
3.169385844e-28
1.124295475e-28
5.078302408e-26
0.03720463143
0.1608718268
4.485112562
10.46765275
2.68667093
3.445992462
12.787426
3.233779518
5.659347904
1.686804417e-23
6.614628113e-24
5.876234134e-24
5.085809886e-24
4.311562211e-24