/*--------------------------------*- C++ -*----------------------------------*\
  =========                 |
  \\      /  F ield         | OpenFOAM: The Open Source CFD Toolbox
   \\    /   O peration     | Website:  https://openfoam.org
    \\  /    A nd           | Version:  6
     \\/     M anipulation  |
\*---------------------------------------------------------------------------*/
FoamFile
{
    version     2.0;
    format      ascii;
    class       surfaceScalarField;
    location    "0.09";
    object      alphaPhi0.phase1;
}
// * * * * * * * * * * * * * * * * * * * * * * * * * * * * * * * * * * * * * //

dimensions      [0 3 -1 0 0 0 0];

internalField   nonuniform List<scalar> 
4900
(
-5.158096691e-21
-6.291395331e-21
1.396027285e-21
-5.798544651e-21
3.437138807e-21
-1.313480316e-21
3.301859262e-21
-1.215566e-22
9.147641197e-22
1.821540479e-22
5.712628815e-41
5.076812154e-41
-8.280901505e-45
-1.033258298e-43
-7.594294151e-17
2.849507754e-18
-7.946299585e-21
4.5874725e-24
-7.878924734e-21
-6.737485922e-23
-7.74538958e-21
-1.335376462e-22
-7.550754847e-21
-1.946403424e-22
-7.301722318e-21
-2.490410648e-22
-7.006317247e-21
-2.95416455e-22
-6.673391858e-21
-3.329395875e-22
-6.31210727e-21
-3.613015707e-22
-5.931462818e-21
-3.806641899e-22
-5.539910589e-21
-3.915746857e-22
-5.145072164e-21
-3.948635606e-22
-4.75355884e-21
-3.915410956e-22
-4.370885669e-21
-3.827035286e-22
-4.001463214e-21
-3.694553449e-22
-3.648648285e-21
-3.528502958e-22
-3.314835162e-21
-3.33850905e-22
-3.0015709e-21
-3.133043959e-22
-2.709681276e-21
-2.919320405e-22
-2.43939723e-21
-2.703286764e-22
-2.190474674e-21
-2.489693236e-22
-1.962303231e-21
-2.282202747e-22
-1.754001486e-21
-2.083525588e-22
-1.564497985e-21
-1.895562181e-22
-1.392598214e-21
-1.719543061e-22
-1.237038571e-21
-1.556159131e-22
-1.096528661e-21
-1.405678255e-22
-9.697834879e-22
-1.268046487e-22
-8.555470558e-22
-1.142973763e-22
-7.526088903e-22
-1.03000488e-22
-6.598147866e-22
-9.285771275e-23
-5.760729669e-22
-8.380662275e-23
-5.003566398e-22
-7.57822309e-23
-4.317037936e-22
-6.871975667e-23
-3.69214903e-22
-6.255671354e-23
-3.120490898e-22
-5.723445374e-23
-2.594191648e-22
-5.269928818e-23
-2.105858702e-22
-4.890328505e-23
-1.648515492e-22
-4.58048435e-23
-1.215533497e-22
-4.336915868e-23
-8.005583936e-23
-4.156881085e-23
-3.97421789e-23
-4.038520702e-23
-3.981387583e-23
-8.531399193e-21
-3.982832826e-21
-3.637620866e-21
-6.712611705e-21
-5.355924053e-22
-3.14010904e-21
-1.349226078e-23
-1.892315206e-22
1.796658721e-25
1.827764363e-24
8.960268839e-29
6.807177085e-25
-9.614311479e-19
-1.217130573e-51
-5.42101091e-18
1.566199609e-19
-8.016076858e-21
1.522227104e-24
-7.94506349e-21
-1.383932123e-22
-7.806484032e-21
-2.721275411e-22
-7.605148952e-21
-3.959912351e-22
-7.348093569e-21
-5.061173792e-22
-7.043838829e-21
-5.996971572e-22
-6.701754642e-21
-6.750547102e-22
-6.331472616e-21
-7.316194486e-22
-5.942377457e-21
-7.698000552e-22
-5.543204506e-21
-7.907931225e-22
-5.141755172e-21
-7.963630814e-22
-4.744726787e-21
-7.886242793e-22
-4.357642746e-21
-7.698468856e-22
-3.984862971e-21
-7.422988508e-22
-3.629653124e-21
-7.081281785e-22
-3.294292254e-21
-6.692840012e-22
-2.980201514e-21
-6.274714302e-22
-2.688080283e-21
-5.841335067e-22
-2.418039704e-21
-5.404532988e-22
-2.169726977e-21
-4.973697662e-22
-1.942436462e-21
-4.556020353e-22
-1.735205758e-21
-4.156778927e-22
-1.546896415e-21
-3.779634256e-22
-1.376259952e-21
-3.426917165e-22
-1.221990453e-21
-3.099892869e-22
-1.082765337e-21
-2.798995857e-22
-9.572759857e-22
-2.524032528e-22
-8.442498841e-22
-2.274351766e-22
-7.42465801e-22
-2.048985519e-22
-6.5076337e-22
-1.846762407e-22
-5.680482497e-22
-1.666397892e-22
-4.932938517e-22
-1.506564562e-22
-4.255404561e-22
-1.365945921e-22
-3.638923737e-22
-1.243276785e-22
-3.075136837e-22
-1.137372991e-22
-2.556229529e-22
-1.047152769e-22
-2.074872541e-22
-9.716517391e-23
-1.62415727e-22
-9.100332254e-23
-1.197529089e-22
-8.615952102e-23
-7.887221323e-23
-8.257747525e-23
-3.917082268e-23
-8.021482846e-23
-7.904130401e-23
-5.470664603e-21
-2.163688936e-21
-4.580455823e-21
-6.252452809e-21
-6.34281e-22
-5.588409352e-21
-2.391601476e-23
-1.224458882e-21
-5.553969577e-25
-2.134826883e-24
3.090310533e-28
2.714881929e-25
-2.929008025e-19
1.825028099e-28
4.331387504e-18
-1.269537055e-19
-8.154722152e-21
-7.372241292e-25
-8.078769424e-21
-2.143500201e-22
-7.930328389e-21
-4.205772709e-22
-7.715261059e-21
-6.110719048e-22
-7.441664971e-21
-7.797312548e-22
-7.119193528e-21
-9.221907706e-22
-6.758321419e-21
-1.035953327e-21
-6.369659199e-21
-1.120312465e-21
-5.963379339e-21
-1.176114947e-21
-5.548785029e-21
-1.205426636e-21
-5.134027714e-21
-1.211163703e-21
-4.725960727e-21
-1.196738599e-21
-4.330105447e-21
-1.165753443e-21
-3.950702041e-21
-1.12175739e-21
-3.59081747e-21
-1.068071643e-21
-3.252486897e-21
-1.00767713e-21
-2.936869505e-21
-9.431549321e-22
-2.64440477e-21
-8.766677972e-22
-2.374959768e-21
-8.09971186e-22
-2.127961886e-21
-7.444437442e-22
-1.902514151e-21
-6.81128955e-22
-1.697492457e-21
-6.20781732e-22
-1.51162534e-21
-5.639155203e-22
-1.343557741e-21
-5.108469919e-22
-1.191900657e-21
-4.617366121e-22
-1.05526868e-21
-4.166242297e-22
-9.323074268e-22
-3.754594599e-22
-8.217126748e-22
-3.381270279e-22
-7.222428485e-22
-3.044674801e-22
-6.327262558e-22
-2.742937935e-22
-5.520642593e-22
-2.474044587e-22
-4.792313558e-22
-2.235935993e-22
-4.132729511e-22
-2.02658656e-22
-3.533014541e-22
-1.844061065e-22
-2.984911798e-22
-1.686556284e-22
-2.480724321e-22
-1.552430549e-22
-2.013250521e-22
-1.440224109e-22
-1.575716443e-22
-1.348672654e-22
-1.161706514e-22
-1.276715779e-22
-7.650941498e-23
-1.223501556e-22
-3.799718248e-23
-1.188387327e-22
-1.170936331e-22
-2.629901105e-21
-1.740578075e-21
-5.544395298e-21
-2.164378813e-21
-2.605304817e-21
-5.463153102e-21
-1.464884587e-22
-3.453682754e-21
-3.238359275e-25
-5.190367443e-22
-2.78708276e-28
1.893962553e-25
3.965536303e-24
1.688744638e-27
4.70950299e-18
-5.833583627e-20
-8.369212576e-21
-4.650109623e-25
-8.284965768e-21
-2.986008442e-22
-8.120792544e-21
-5.847590336e-22
-7.883898596e-21
-8.47978961e-22
-7.584112003e-21
-1.079535338e-21
-7.232952546e-21
-1.273372037e-21
-6.842684781e-21
-1.426247179e-21
-6.425471997e-21
-1.537555565e-21
-5.992705593e-21
-1.608915844e-21
-5.554539144e-21
-1.643631691e-21
-5.119620607e-21
-1.646124892e-21
-4.694993307e-21
-1.621412522e-21
-4.28612599e-21
-1.574671273e-21
-3.897031193e-21
-1.510906502e-21
-3.530435857e-21
-1.434725003e-21
-3.18797551e-21
-1.350199111e-21
-2.870391145e-21
-1.260804437e-21
-2.577715051e-21
-1.169412429e-21
-2.309437543e-21
-1.078320516e-21
-2.064650871e-21
-9.893054044e-22
-1.842169495e-21
-9.036883653e-22
-1.640627829e-21
-8.22404353e-22
-1.458557615e-21
-7.46069483e-22
-1.294447562e-21
-6.750434554e-22
-1.146788023e-21
-6.094850898e-22
-1.014103335e-21
-5.494002511e-22
-8.949741984e-22
-4.946821848e-22
-7.880521926e-22
-4.451447387e-22
-6.920681551e-22
-4.005491982e-22
-6.058358922e-22
-3.606255704e-22
-5.282523875e-22
-3.250891674e-22
-4.582954455e-22
-2.936532911e-22
-3.950195004e-22
-2.660387516e-22
-3.375501556e-22
-2.419808572e-22
-2.850778767e-22
-2.212344223e-22
-2.368511562e-22
-2.035772529e-22
-1.921693765e-22
-1.888124842e-22
-1.50375531e-22
-1.767700734e-22
-1.108489079e-22
-1.673076852e-22
-7.29977738e-23
-1.603111475e-22
-3.62519732e-23
-1.556946154e-22
-1.534006238e-22
-1.236567802e-21
-1.431088398e-21
-2.228449289e-21
-1.518191967e-21
-3.585863895e-21
-3.157170069e-21
-1.248951982e-21
-5.411979558e-21
-2.306396395e-25
-1.835377761e-21
2.836416724e-25
8.246281958e-24
5.429447234e-24
3.228182968e-27
-1.002887019e-18
1.58592353e-19
-8.667416234e-21
2.038635658e-26
-8.571077537e-21
-3.94943553e-22
-8.383968893e-21
-7.718762063e-22
-8.115424706e-21
-1.116536239e-21
-7.777932493e-21
-1.41704502e-21
-7.385824652e-21
-1.665501663e-21
-6.954001243e-21
-1.858096645e-21
-6.496848773e-21
-1.994738316e-21
-6.027443528e-21
-2.078355541e-21
-5.557057411e-21
-2.11405637e-21
-5.094934103e-21
-2.108290803e-21
-4.648277069e-21
-2.068116126e-21
-4.222384242e-21
-2.000614555e-21
-3.820870046e-21
-1.91247495e-21
-3.445927337e-21
-1.80972567e-21
-3.098595189e-21
-1.697592822e-21
-2.779010623e-21
-1.580454069e-21
-2.486632019e-21
-1.461859493e-21
-2.220429038e-21
-1.344595237e-21
-1.979038507e-21
-1.230770838e-21
-1.760888564e-21
-1.121916254e-21
-1.564294759e-21
-1.019079021e-21
-1.387532382e-21
-9.22915512e-22
-1.228889226e-21
-8.337729229e-22
-1.086702652e-21
-7.517605019e-22
-9.593843387e-22
-6.768097924e-22
-8.454355597e-22
-6.087244449e-22
-7.43455303e-22
-5.472205904e-22
-6.521431048e-22
-4.919589644e-22
-5.702980565e-22
-4.425700179e-22
-4.96815116e-22
-3.986731949e-22
-4.306795832e-22
-3.598914547e-22
-3.709603805e-22
-3.25861984e-22
-3.168026101e-22
-2.962439108e-22
-2.674197234e-22
-2.707236998e-22
-2.220855377e-22
-2.490187905e-22
-1.801262543e-22
-2.308799339e-22
-1.409125722e-22
-2.160925891e-22
-1.038519411e-22
-2.044776697e-22
-6.838095455e-23
-1.958918595e-22
-3.395783856e-23
-1.902276803e-22
-1.874134766e-22
-8.398267896e-22
-1.155946463e-21
-1.51876746e-21
-1.440853415e-21
-3.230569686e-21
-2.13636804e-21
-2.453267371e-21
-5.402402465e-21
-6.498534849e-23
-3.443857172e-21
2.489622237e-23
-1.348926533e-22
-2.91257889e-19
4.52607498e-27
-2.04860002e-17
-9.689503052e-20
-9.061411069e-21
-7.647732582e-25
-8.947940249e-21
-5.084183937e-22
-8.728569588e-21
-9.912553969e-22
-8.415894e-21
-1.429224922e-21
-8.026370086e-21
-1.806586406e-21
-7.578419157e-21
-2.11347438e-21
-7.090657531e-21
-2.345884333e-21
-6.580491508e-21
-2.504934627e-21
-6.063176575e-21
-2.595704933e-21
-5.551327103e-21
-2.625944411e-21
-5.054794814e-21
-2.604865703e-21
-4.580808924e-21
-2.542148595e-21
-4.134274764e-21
-2.447199179e-21
-3.718146886e-21
-2.328657091e-21
-3.333816371e-21
-2.194114152e-21
-2.981474182e-21
-2.049996584e-21
-2.660429975e-21
-1.901563353e-21
-2.369378309e-21
-1.752979628e-21
-2.106612289e-21
-1.607433008e-21
-1.870189162e-21
-1.467268879e-21
-1.658054614e-21
-1.334128757e-21
-1.468132987e-21
-1.209081522e-21
-1.298390341e-21
-1.092741822e-21
-1.146876465e-21
-9.853731217e-22
-1.011750962e-21
-8.869748529e-22
-8.912975733e-22
-7.9735442e-22
-7.839300101e-22
-7.161854999e-22
-6.881918304e-22
-6.430543757e-22
-6.027522565e-22
-5.774961169e-22
-5.263993492e-22
-5.190223347e-22
-4.580315626e-22
-4.671420788e-22
-3.966484089e-22
-4.213772492e-22
-3.413407403e-22
-3.812736921e-22
-2.912809868e-22
-3.46408957e-22
-2.457135684e-22
-3.16397518e-22
-2.039456087e-22
-2.908941107e-22
-1.653380144e-22
-2.695957022e-22
-1.292969365e-22
-2.522425078e-22
-9.526559374e-23
-2.386183722e-22
-6.271641719e-23
-2.28550767e-22
-3.114345605e-23
-2.219105953e-22
-2.186119557e-22
-6.588603956e-22
-7.632495686e-22
-9.651976658e-22
-1.222716374e-21
-2.415706431e-21
-2.061217765e-21
-2.882207706e-21
-5.956781315e-21
-1.219512076e-21
-4.702598592e-21
4.366799462e-23
-1.085232913e-21
-1.00982003e-18
5.197387019e-27
-1.726049871e-17
-1.147808371e-18
-9.56837084e-21
-3.918100552e-24
-9.430682359e-21
-6.461108981e-22
-9.166460487e-21
-1.255485801e-21
-8.793206175e-21
-1.802492333e-21
-8.333238025e-21
-2.266572034e-21
-7.810834668e-21
-2.635899533e-21
-7.24973318e-21
-2.907011892e-21
-6.671300514e-21
-3.08339759e-21
-6.093462074e-21
-3.173577842e-21
-5.530296756e-21
-3.189148311e-21
-4.992124706e-21
-3.143080377e-21
-4.485902683e-21
-3.048417211e-21
-4.015770619e-21
-2.917381721e-21
-3.583636067e-21
-2.76084592e-21
-3.18972509e-21
-2.588083113e-21
-2.833061773e-21
-2.406721492e-21
-2.511862185e-21
-2.222828036e-21
-2.223843417e-21
-2.041066885e-21
-1.966456367e-21
-1.864891828e-21
-1.737054386e-21
-1.696745793e-21
-1.533010453e-21
-1.538250666e-21
-1.351794606e-21
-1.390378262e-21
-1.19102164e-21
-1.253598472e-21
-1.048477235e-21
-1.12800387e-21
-9.221288994e-22
-1.013412058e-21
-8.101265863e-22
-9.094479935e-22
-7.107965628e-22
-8.156090369e-22
-6.226311311e-22
-7.313154348e-22
-5.442760208e-22
-6.559488277e-22
-4.745167039e-22
-5.88881083e-22
-4.122644632e-22
-5.294954386e-22
-3.565427404e-22
-4.772016347e-22
-3.064740783e-22
-4.314464156e-22
-2.612678222e-22
-3.917205273e-22
-2.202086464e-22
-3.575631148e-22
-1.826459018e-22
-3.285642367e-22
-1.479837396e-22
-3.043660591e-22
-1.156719386e-22
-2.846631696e-22
-8.519734324e-23
-2.692023468e-22
-5.607581613e-23
-2.57782044e-22
-2.784460212e-23
-2.502517817e-22
-2.46511591e-22
-4.560471696e-22
-2.355639837e-22
-7.863763592e-22
-9.035813017e-22
-2.410822243e-21
-1.297381441e-21
-3.359857258e-21
-5.248984091e-21
-1.814316013e-21
-6.538425164e-21
-1.280841537e-23
-2.644914634e-21
-2.024367828e-18
2.397329221e-23
2.480112408e-19
-3.657417776e-18
-1.021178496e-20
-1.024836094e-23
-1.003992757e-20
-8.179723057e-22
-9.713364321e-21
-1.58205759e-21
-9.257226762e-21
-2.258642994e-21
-8.702548178e-21
-2.821268102e-21
-8.081964413e-21
-3.256505101e-21
-7.426161417e-21
-3.562840966e-21
-6.761538679e-21
-3.748050634e-21
-6.109097342e-21
-3.82605366e-21
-5.484293992e-21
-3.813990253e-21
-4.897522619e-21
-3.729894388e-21
-4.354921527e-21
-3.591064908e-21
-3.859281167e-21
-3.413072575e-21
-3.41091139e-21
-3.209269991e-21
-3.008393798e-21
-2.990658706e-21
-2.649191634e-21
-2.765985264e-21
-2.330118303e-21
-2.541966479e-21
-2.047680575e-21
-2.32357312e-21
-1.798318444e-21
-2.114325747e-21
-1.57856412e-21
-1.91657507e-21
-1.385140401e-21
-1.731752382e-21
-1.215015281e-21
-1.560584297e-21
-1.06542613e-21
-1.403271328e-21
-9.338835496e-22
-1.259632816e-21
-8.181623239e-22
-1.129222175e-21
-7.16284733e-22
-1.011416867e-21
-6.264998707e-22
-9.054874351e-22
-5.472613851e-22
-8.106495702e-22
-4.772051937e-22
-7.261026422e-22
-4.151281095e-22
-6.510576213e-22
-3.599678942e-22
-5.847567956e-22
-3.107849761e-22
-5.264872381e-22
-2.667458866e-22
-4.755895889e-22
-2.271083608e-22
-4.314633897e-22
-1.912079798e-22
-3.935699392e-22
-1.584461976e-22
-3.614334221e-22
-1.282795844e-22
-3.346408886e-22
-1.002101083e-22
-3.128415277e-22
-7.377628829e-23
-2.957455669e-22
-4.854505419e-23
-2.831230484e-22
-2.410416213e-23
-2.748026664e-22
-2.706707966e-22
-2.45639443e-22
-3.134364068e-23
-4.766660992e-22
-5.346456632e-22
-1.21806261e-21
-8.767442985e-22
-3.92669128e-21
-2.206281374e-21
-2.83842653e-21
-8.786456808e-21
-1.970267471e-22
-6.853265777e-21
-1.673966513e-18
-3.605361145e-22
1.927169318e-18
-4.765770444e-18
-1.102469503e-20
-1.6904517e-23
-1.080382454e-20
-1.038846829e-21
-1.038981751e-20
-1.99607316e-21
-9.819784726e-21
-2.82868888e-21
-9.137777546e-21
-3.503292772e-21
-8.388339055e-21
-4.0059654e-21
-7.61144058e-21
-4.339765527e-21
-6.839627314e-21
-4.519894216e-21
-6.09712403e-21
-4.568591435e-21
-5.400284565e-21
-4.510868324e-21
-4.758770952e-21
-4.371450651e-21
-4.17699593e-21
-4.172886549e-21
-3.655533575e-21
-3.934585439e-21
-3.192343828e-21
-3.672514047e-21
-2.783753937e-21
-3.399306613e-21
-2.425197702e-21
-3.124603124e-21
-2.111742548e-21
-2.855486763e-21
-1.838444958e-21
-2.596939235e-21
-1.600574927e-21
-2.352267587e-21
-1.393745069e-21
-2.1234799e-21
-1.213973323e-21
-1.911602144e-21
-1.057701412e-21
-1.716937144e-21
-9.217853876e-22
-1.539271078e-21
-8.034697994e-22
-1.37803479e-21
-7.00353371e-22
-1.232427516e-21
-6.103513821e-22
-1.10151016e-21
-5.316580049e-22
-9.8427437e-22
-4.627105138e-22
-8.796927332e-22
-4.02156386e-22
-7.867544152e-22
-3.488237207e-22
-7.04489763e-22
-3.016950412e-22
-6.319866393e-22
-2.598843257e-22
-5.684006613e-22
-2.226169948e-22
-5.129610259e-22
-1.892125322e-22
-4.649732111e-22
-1.590693986e-22
-4.238195381e-22
-1.316519106e-22
-3.889583352e-22
-1.064787751e-22
-3.599222619e-22
-8.311299812e-23
-3.363162079e-22
-6.115291355e-23
-3.178150724e-22
-4.02241042e-23
-3.041616487e-22
-1.997200927e-23
-2.951647743e-22
-2.906978595e-22
-5.573111756e-23
-1.103987446e-25
-2.664789073e-22
-1.085335675e-22
-5.246558319e-22
-6.011892109e-22
-3.007095737e-21
-7.354611076e-22
-5.929086736e-21
-5.611646777e-21
-7.712668459e-22
-1.428209848e-20
2.830078177e-19
-5.503771104e-22
-4.591596227e-18
-4.721629141e-18
-1.205525274e-20
-2.794259287e-23
-1.176077487e-20
-1.333328734e-21
-1.122226628e-20
-2.534590291e-21
-1.049431898e-20
-3.556649286e-21
-9.640465334e-21
-4.357163912e-21
-8.722215025e-21
-4.924237524e-21
-7.791680316e-21
-5.270326328e-21
-6.888449463e-21
-5.423155393e-21
-6.039524453e-21
-5.417550945e-21
-5.260979567e-21
-5.289451825e-21
-4.560303854e-21
-5.072169026e-21
-3.938774628e-21
-4.794462408e-21
-3.393525341e-21
-4.479885248e-21
-2.91918459e-21
-4.146909121e-21
-2.509085863e-21
-3.809463372e-21
-2.156106252e-21
-3.477644377e-21
-1.853211559e-21
-3.158446603e-21
-1.593783356e-21
-2.856435981e-21
-1.371792375e-21
-2.574330393e-21
-1.181868833e-21
-2.313478434e-21
-1.019307258e-21
-2.074241754e-21
-8.800325041e-22
-1.856292853e-21
-7.605450997e-22
-1.658842228e-21
-6.57857834e-22
-1.480808462e-21
-5.694309757e-22
-1.320943309e-21
-4.931104581e-22
-1.177922003e-21
-4.270713164e-22
-1.050407091e-21
-3.697673497e-22
-9.370923933e-22
-3.19887175e-22
-8.367322568e-22
-2.763163766e-22
-7.481600594e-22
-2.381052106e-22
-6.702989912e-22
-2.044412189e-22
-6.021673824e-22
-1.746260927e-22
-5.428802799e-22
-1.480561517e-22
-4.916485325e-22
-1.242058597e-22
-4.477763169e-22
-1.026138625e-22
-4.106577788e-22
-8.287109617e-23
-3.797732871e-22
-6.4610577e-23
-3.546856511e-22
-4.749853433e-23
-3.350365567e-22
-3.122659699e-23
-3.205433974e-22
-1.55047794e-23
-3.109966251e-22
-3.062577025e-22
7.906670017e-25
8.7728529e-26
-9.32074903e-23
8.136545105e-27
-2.488057502e-22
-2.933268691e-22
-1.656996063e-21
-6.013906044e-22
-8.417255939e-21
-1.298681622e-21
-4.029226383e-22
-8.187124814e-22
-6.943553816e-18
-3.808220406e-22
-1.589440396e-17
-3.939479557e-16
-1.337039368e-20
-1.381222112e-22
-1.296165333e-20
-1.742073102e-21
-1.224411371e-20
-3.252138454e-21
-1.129477399e-20
-4.506002125e-21
-1.020760097e-20
-5.444354432e-21
-9.068442187e-21
-6.063418125e-21
-7.944683291e-21
-6.394111324e-21
-6.883024545e-21
-6.484844471e-21
-5.911591778e-21
-6.389018222e-21
-5.043840499e-21
-6.157241729e-21
-4.282714965e-21
-5.833337233e-21
-3.624289808e-21
-5.452934211e-21
-3.060618855e-21
-5.043606735e-21
-2.581789325e-21
-4.625792989e-21
-2.177301847e-21
-4.214008898e-21
-1.836931316e-21
-3.818076565e-21
-1.551214534e-21
-3.444228548e-21
-1.311684519e-21
-3.096034556e-21
-1.110942232e-21
-2.775144524e-21
-9.42630522e-22
-2.481865153e-21
-8.01354415e-22
-2.215595915e-21
-6.825764781e-22
-1.975151763e-21
-5.825050968e-22
-1.758997375e-21
-4.979860606e-22
-1.565413925e-21
-4.26402986e-22
-1.392615337e-21
-3.655890183e-22
-1.238827316e-21
-3.137503935e-22
-1.102339315e-21
-2.694013824e-22
-9.815371185e-22
-2.313095955e-22
-8.749217315e-22
-1.984504018e-22
-7.81118772e-22
-1.699691787e-22
-6.988814213e-22
-1.451501718e-22
-6.270891397e-22
-1.233908674e-22
-5.647437331e-22
-1.041809077e-22
-5.109638936e-22
-8.708472435e-23
-4.649790079e-22
-7.172718548e-23
-4.261227848e-22
-5.778166916e-23
-3.938270829e-22
-4.496006996e-23
-3.676161948e-22
-3.300432762e-23
-3.471017608e-22
-2.167913217e-23
-3.319784242e-22
-1.076551233e-23
-3.22020298e-22
-3.170782881e-22
0
0
1.935567204e-23
5.287778197e-24
-1.276428847e-22
-4.373478083e-23
-3.070816837e-22
-2.81613999e-22
-3.870368169e-22
-3.5046463e-22
-9.918843795e-23
-3.587863074e-22
-1.205394747e-15
-4.004786458e-22
-1.034870982e-17
-1.54370212e-15
-1.499172791e-20
-7.816180757e-23
-1.447094306e-20
-2.26286198e-21
-1.34976801e-20
-4.22540996e-21
-1.223310687e-20
-5.770588469e-21
-1.082681873e-20
-6.850660068e-21
-9.399377018e-21
-7.49088167e-21
-8.035683138e-21
-7.757831311e-21
-6.787451145e-21
-7.733106805e-21
-5.68003428e-21
-7.496469605e-21
-4.720114091e-21
-7.117200554e-21
-3.90244979e-21
-6.651044218e-21
-3.21506452e-21
-6.140366138e-21
-2.642877697e-21
-5.615844106e-21
-2.170054357e-21
-5.098670681e-21
-1.78140069e-21
-4.602720625e-21
-1.463101161e-21
-4.136437765e-21
-1.203028805e-21
-3.704366083e-21
-9.907960315e-22
-3.308335905e-21
-8.176598682e-22
-2.948352547e-21
-6.763553674e-22
-2.62324468e-21
-5.609025935e-22
-2.331126761e-21
-4.66413502e-22
-2.069721847e-21
-3.88912721e-22
-1.83658194e-21
-3.251786059e-22
-1.629234485e-21
-2.726064162e-22
-1.445276499e-21
-2.290929497e-22
-1.282432147e-21
-1.929407049e-22
-1.138585179e-21
-1.627791259e-22
-1.011794431e-21
-1.375004041e-22
-9.00298161e-22
-1.162074503e-22
-8.025112649e-22
-9.81719077e-23
-7.170181908e-22
-8.280036009e-23
-6.425634579e-22
-6.960717601e-23
-5.780410861e-22
-5.819269151e-23
-5.224837996e-22
-4.822566141e-23
-4.750525656e-22
-3.942910573e-23
-4.350268275e-22
-3.156883979e-23
-4.01795648e-22
-2.444410969e-23
-3.748498889e-22
-1.787986191e-23
-3.537754899e-22
-1.172026067e-23
-3.382478762e-22
-5.823132063e-24
-3.280274988e-22
-3.229565027e-22
-2.834191018e-51
-2.784807214e-52
1.036203788e-24
2.065497226e-25
4.353358396e-25
8.257702466e-24
-8.280342416e-23
-1.06673598e-22
-1.297280232e-22
-2.127635124e-22
-3.114783927e-23
-3.123696747e-22
-2.727956449e-15
-2.225855301e-22
3.409819708e-18
-1.514601976e-16
-1.723048979e-20
-1.575441002e-22
-1.643282939e-20
-3.060526403e-21
-1.504261944e-20
-5.615628457e-21
-1.331330383e-20
-7.499917197e-21
-1.14673724e-20
-8.69660901e-21
-9.666734048e-21
-9.291541853e-21
-8.011357065e-21
-9.413234408e-21
-6.551160143e-21
-9.193334074e-21
-5.301043858e-21
-8.746620416e-21
-4.254169553e-21
-8.164113503e-21
-3.391925103e-21
-7.513331362e-21
-2.690648472e-21
-6.841689436e-21
-2.125773671e-21
-6.180769467e-21
-1.674146546e-21
-5.550352169e-21
-1.315140575e-21
-4.961784671e-21
-1.031038652e-21
-4.420601373e-21
-8.069986704e-22
-3.928471257e-21
-6.308068316e-22
-3.484596334e-21
-4.92542586e-22
-3.086688668e-21
-3.842260731e-22
-2.731636236e-21
-2.994854475e-22
-2.415945475e-21
-2.332612395e-22
-2.136027063e-21
-1.815532565e-22
-1.888373724e-21
-1.412092462e-22
-1.669664958e-21
-1.097514867e-22
-1.47682325e-21
-8.523627925e-23
-1.307038738e-21
-6.614115163e-23
-1.157773944e-21
-5.127493262e-23
-1.026756403e-21
-3.970643242e-23
-9.119643876e-22
-3.07081007e-23
-8.116091546e-22
-2.371164649e-23
-7.241158911e-22
-1.827315335e-23
-6.481047406e-22
-1.404569551e-23
-5.823727319e-22
-1.075785576e-23
-5.258770798e-22
-8.196869442e-24
-4.777200985e-22
-6.195381316e-24
-4.371358215e-22
-4.621010923e-24
-4.034783364e-22
-3.368088235e-24
-3.762117943e-22
-2.351050815e-24
-3.549020271e-22
-1.499094288e-24
-3.392097018e-22
-7.517440956e-25
-3.288849396e-22
-3.237633379e-22
-1.136987558e-54
-9.952403859e-56
9.011714848e-46
-4.458512524e-44
1.705925973e-23
6.426917016e-24
-2.597299533e-23
-9.147707536e-24
-9.397445839e-23
-1.136857727e-22
-9.140620225e-23
-2.055394507e-22
-1.350043343e-16
-2.061190628e-22
9.496255637e-18
-1.872215685e-16
-2.027997093e-20
-5.224004952e-22
-1.89872892e-20
-4.353212156e-21
-1.692682348e-20
-7.676102726e-21
-1.451042311e-20
-9.916330694e-21
-1.206294655e-20
-1.114410308e-20
-9.789084066e-21
-1.156542617e-20
-7.792030237e-21
-1.141031436e-20
-6.10490143e-21
-1.088049323e-20
-4.718874506e-21
-1.013268187e-20
-3.603624521e-21
-9.279402141e-21
-2.720441139e-21
-8.396557447e-21
-2.029827463e-21
-7.53234979e-21
-1.49541316e-21
-6.715234339e-21
-1.085606763e-21
-5.960212942e-21
-7.739656571e-22
-5.273483863e-21
-5.389045734e-22
-4.655724156e-21
-3.6311233e-22
-4.104328707e-21
-2.328836228e-22
-3.614893647e-21
-1.374726997e-22
-3.182171482e-21
-6.851737625e-23
-2.800666617e-21
-1.954950887e-23
-2.464991446e-21
1.440869468e-23
-2.170066291e-21
3.717089143e-23
-1.911219738e-21
5.164650622e-23
-1.684227052e-21
6.004570853e-23
-1.48531146e-21
6.4039873e-23
-1.311124302e-21
6.488649516e-23
-1.158714221e-21
6.352602377e-23
-1.025491701e-21
6.065667246e-23
-9.091927803e-22
5.679206019e-23
-8.07844118e-22
5.230551713e-23
-7.197306118e-22
4.746406787e-23
-6.433660988e-22
4.245444383e-23
-5.774673137e-22
3.740295438e-23
-5.209310487e-22
3.23906363e-23
-4.728143448e-22
2.746478226e-23
-4.32317491e-22
2.264770149e-23
-3.987695912e-22
1.79433752e-23
-3.716164682e-22
1.334252351e-23
-3.504106925e-22
8.826489719e-24
-3.348035544e-22
4.370265257e-24
-3.245388228e-22
-3.194481717e-22
3.867339388e-33
3.089088823e-34
1.945008069e-33
4.444419232e-34
3.945923554e-33
1.271538679e-33
1.443044757e-23
2.109950635e-23
-4.813958611e-23
-3.511979906e-23
-6.269013753e-23
-1.435871744e-22
-1.143876722e-16
-1.302974354e-22
8.013609078e-18
-4.791507407e-17
-2.443411069e-20
-1.041772554e-21
-2.230941682e-20
-6.477910038e-21
-1.916739871e-20
-1.081812939e-20
-1.573922217e-20
-1.334452036e-20
-1.248541789e-20
-1.439792487e-20
-9.634980063e-21
-1.441588584e-20
-7.262992449e-21
-1.37823281e-20
-5.357652682e-21
-1.278586336e-20
-3.865974395e-21
-1.16243947e-20
-2.721020967e-21
-1.042439423e-20
-1.856375877e-21
-9.261245249e-21
-1.212787121e-21
-8.175985232e-21
-7.404228323e-22
-7.187649207e-21
-3.988811297e-22
-6.30180903e-21
-1.561929686e-22
-5.516230122e-21
1.2512861e-23
-4.824491695e-21
1.263489422e-22
-4.218230007e-21
1.99866001e-22
-3.688479323e-21
2.440590881e-22
-3.226436472e-21
2.671831819e-22
-2.823865782e-21
2.753989931e-22
-2.473285374e-21
2.732763639e-22
-2.168024701e-21
2.641824558e-22
-1.902209662e-21
2.505788368e-22
-1.670709927e-21
2.342476185e-22
-1.469069264e-21
2.164628981e-22
-1.293430997e-21
1.981203316e-22
-1.140465325e-21
1.79834809e-22
-1.007301965e-21
1.620139081e-22
-8.914696395e-22
1.449129953e-22
-7.90842797e-22
1.286764448e-22
-7.035953413e-22
1.133683676e-22
-6.281608453e-22
9.899542248e-23
-5.631985907e-22
8.552365584e-23
-5.075647566e-22
7.289084372e-23
-4.602881133e-22
6.101545219e-23
-4.205496392e-22
4.980306112e-23
-3.87665552e-22
3.915089396e-23
-3.610733173e-22
2.895094249e-23
-3.403202742e-22
1.909206269e-23
-3.250545769e-22
9.461333383e-24
-3.15018217e-22
-3.100419446e-22
1.335765963e-34
9.283977506e-36
5.922185516e-29
1.252788554e-29
5.91983232e-29
2.014962659e-29
1.166249229e-23
4.718370517e-24
-1.2608243e-23
7.791351003e-24
-2.602667002e-23
-6.529043328e-23
-2.834119314e-17
-3.125582281e-23
2.156206979e-18
-8.591988327e-17
-3.047948904e-20
-2.233984461e-21
-2.664976592e-20
-1.030763718e-20
-2.16954856e-20
-1.577241826e-20
-1.679480957e-20
-1.824520952e-20
-1.250529664e-20
-1.868745532e-20
-9.002864969e-21
-1.791833936e-20
-6.26751739e-21
-1.65177018e-20
-4.196816703e-21
-1.485659441e-20
-2.666351156e-21
-1.31548948e-20
-1.558077435e-21
-1.153270662e-20
-7.712112334e-22
-1.004815417e-20
-2.24479099e-22
-8.722764061e-21
1.454284161e-22
-7.557607311e-21
3.867298098e-22
-6.543164818e-21
5.355872256e-22
-5.665145645e-21
6.188193419e-22
-4.907785532e-21
6.56143615e-22
-4.255619509e-21
6.61950011e-22
-3.694354348e-21
6.466671728e-22
-3.211225549e-21
6.17796931e-22
-2.795070624e-21
5.806890279e-22
-2.436255602e-21
5.391170473e-22
-2.126533773e-21
4.957044665e-22
-1.858880927e-21
4.522387785e-22
-1.627330747e-21
4.099025303e-22
-1.426822053e-21
3.694429184e-22
-1.253062815e-21
3.312960454e-22
-1.102412137e-21
2.956777597e-22
-9.717794793e-22
2.62649879e-22
-8.585395333e-22
2.321682814e-22
-7.604608058e-22
2.041176428e-22
-6.756459974e-22
1.783363399e-22
-6.024823808e-22
1.546341116e-22
-5.396005992e-22
1.328043933e-22
-4.858405277e-22
1.126327359e-22
-4.402230512e-22
9.390235147e-23
-4.019268093e-22
7.639755852e-23
-3.702691254e-22
5.990569584e-23
-3.446904855e-22
4.42179296e-23
-3.247420556e-22
2.912926855e-23
-3.100758324e-22
1.443802478e-23
-3.00437111e-22
-2.956590323e-22
0
0
6.079950049e-29
1.002692014e-29
1.378430531e-28
4.186737683e-29
2.037097901e-31
5.134309398e-32
1.198109857e-23
9.226151391e-24
-3.108928935e-24
-1.16280768e-31
-3.848872116e-17
5.586562806e-43
-1.876211879e-17
-1.606707859e-16
-3.956242189e-20
-6.020703028e-21
-3.211827015e-20
-1.775179296e-20
-2.417307093e-20
-2.371762603e-20
-1.724114707e-20
-2.517714652e-20
-1.173907959e-20
-2.418954032e-20
-7.604083537e-21
-2.205335726e-20
-4.607510373e-21
-1.95143011e-20
-2.495718411e-21
-1.696841675e-20
-1.044454183e-21
-1.460619358e-20
-7.363302012e-23
-1.250356645e-20
5.541732527e-22
-1.067600317e-20
9.407250714e-22
-9.109362582e-21
1.159942249e-21
-7.776875085e-21
1.264827728e-21
-6.648104701e-21
1.293024612e-21
-5.693400645e-21
1.271056796e-21
-4.885879446e-21
1.217472574e-21
-4.202100525e-21
1.145134605e-21
-3.622085019e-21
1.062870255e-21
-3.129033124e-21
9.766531769e-22
-2.70892864e-21
8.904459702e-22
-2.350126536e-21
8.067997182e-22
-2.042968584e-21
7.272799472e-22
-1.779445013e-21
6.527689286e-22
-1.552906248e-21
5.836799687e-22
-1.357822141e-21
5.201090464e-22
-1.189583335e-21
4.619418267e-22
-1.044338614e-21
4.089288609e-22
-9.188623262e-22
3.607380911e-22
-8.104465506e-22
3.169911517e-22
-7.168134855e-22
2.772881048e-22
-6.360442579e-22
2.412239209e-22
-5.665210481e-22
2.083990776e-22
-5.068800056e-22
1.784259757e-22
-4.559729279e-22
1.509323904e-22
-4.12836074e-22
1.255628323e-22
-3.766648185e-22
1.019784421e-22
-3.467931143e-22
7.98558653e-23
-3.226769521e-22
5.888542601e-23
-3.038811765e-22
3.876882407e-23
-2.900691596e-22
1.921651615e-23
-2.809949532e-22
-2.76497634e-22
-4.23050341e-58
-2.218461967e-59
1.938567526e-29
1.656130569e-30
5.872688126e-29
5.908790795e-30
1.328988613e-31
4.313957739e-32
4.155816078e-24
2.184821531e-24
6.295262968e-36
1.886884781e-32
-4.143171675e-17
5.081318564e-27
-3.92752235e-17
-1.807301501e-16
-5.279615163e-20
-1.910737513e-20
-3.809812985e-20
-3.244981877e-20
-2.564288171e-20
-3.617288272e-20
-1.626003655e-20
-3.456000481e-20
-9.606629084e-21
-3.084296531e-20
-5.06701077e-21
-2.659299742e-20
-2.062580587e-21
-2.251875742e-20
-1.338762494e-22
-1.889715146e-20
1.058094787e-21
-1.579819917e-20
1.754000483e-21
-1.319951083e-20
2.120947393e-21
-1.104299281e-20
2.273364573e-21
-9.261826469e-21
2.28886078e-21
-7.792421895e-21
2.219666136e-21
-6.578964468e-21
2.100662972e-21
-5.574455604e-21
1.954935584e-21
-4.740213795e-21
1.79757206e-21
-4.044802249e-21
1.638256568e-21
-3.462838174e-21
1.483032954e-21
-2.973881444e-21
1.335503565e-21
-2.561474354e-21
1.197643965e-21
-2.212345087e-21
1.070356532e-21
-1.915762223e-21
9.538463585e-22
-1.663018706e-21
8.478760784e-22
-1.447022497e-21
7.519380283e-22
-1.26197315e-21
6.653698925e-22
-1.103106651e-21