/*--------------------------------*- C++ -*----------------------------------*\
  =========                 |
  \\      /  F ield         | OpenFOAM: The Open Source CFD Toolbox
   \\    /   O peration     | Website:  https://openfoam.org
    \\  /    A nd           | Version:  6
     \\/     M anipulation  |
\*---------------------------------------------------------------------------*/
FoamFile
{
    version     2.0;
    format      ascii;
    class       volVectorField;
    location    "0.09";
    object      gradT;
}
// * * * * * * * * * * * * * * * * * * * * * * * * * * * * * * * * * * * * * //

dimensions      [0 -1 0 1 0 0 0];

internalField   nonuniform List<vector> 
2500
(
(0 -1175.688653 19526.81607)
(0 -2513.555898 16758.4219)
(0 -2416.397445 13025.73495)
(0 -1908.320786 9433.778411)
(0 -1475.12666 6348.654895)
(0 -1180.917196 3909.765199)
(0 -1018.634213 1899.331825)
(0 -495.0158681 72.76621116)
(0 -15.36072421 27.64257746)
(0 -5.264250711 14.3056111)
(0 -2.813575189 6.87656788)
(0 -1.387907198 3.074416933)
(0 -0.6298776028 1.290976449)
(0 -0.2653825323 0.5167574115)
(0 -0.1053821207 0.2006612855)
(0 -0.04018248097 0.07686081125)
(0 -0.01500187766 0.02938375632)
(0 -0.005574565371 0.01125360012)
(0 -0.002080483596 0.004300166233)
(0 -0.000779688981 0.001625162494)
(0 -0.0002912337854 0.0006016658078)
(0 -0.0001072924399 0.0002164514581)
(0 -3.859872672e-05 7.523883092e-05)
(0 -1.345968293e-05 2.518388947e-05)
(0 -4.530214546e-06 8.100364304e-06)
(0 -1.466261089e-06 2.49846485e-06)
(0 -4.53915545e-07 7.380480414e-07)
(0 -1.339253204e-07 2.079465886e-07)
(0 -3.835176956e-08 5.613946145e-08)
(0 -1.383487147e-08 1.261137944e-08)
(0 -6.023345403e-09 -1.082319877e-09)
(0 9.882051051e-10 -5.552771543e-09)
(0 6.588034034e-10 -2.117582368e-09)
(0 -6.117460175e-10 -2.964615315e-09)
(0 -7.529181753e-10 -4.235164736e-09)
(0 7.529181753e-10 -5.599828929e-09)
(0 4.235164736e-09 -4.093992578e-09)
(0 3.576361333e-09 1.929352824e-09)
(0 9.411477192e-10 5.129255069e-09)
(0 -3.811648263e-09 3.105787473e-09)
(0 -2.399926684e-09 -6.776263578e-09)
(0 -1.788180666e-09 -5.835115859e-09)
(0 -3.294017017e-09 -1.011733798e-08)
(0 5.129255069e-09 -8.705616402e-09)
(0 5.741001087e-09 2.729328386e-09)
(0 2.44698407e-09 6.917435736e-09)
(0 -9.411477192e-11 8.752673788e-09)
(0 -1.929352824e-09 6.823320964e-09)
(0 -3.764590877e-10 6.823320964e-09)
(0 -3.905763035e-09 3.952820421e-09)
(0 -1592.70551 11888.22164)
(0 -3987.525223 11669.30422)
(0 -4908.24605 10483.40068)
(0 -4768.759267 8328.112649)
(0 -4048.886552 5869.397706)
(0 -3268.405874 3704.087961)
(0 -2818.364775 1844.475855)
(0 -1376.673379 71.76980745)
(0 -43.09987585 28.01964335)
(0 -15.50175887 14.77938471)
(0 -8.417618977 7.295218272)
(0 -4.197684233 3.384653592)
(0 -1.927781918 1.494164361)
(0 -0.8249326309 0.6377563116)
(0 -0.3345144794 0.2673612549)
(0 -0.1310950482 0.1112828501)
(0 -0.05060533348 0.04612544671)
(0 -0.01950902486 0.0189555565)
(0 -0.00754795398 0.007658519355)
(0 -0.002918811397 0.003014988741)
(0 -0.001117477203 0.001148188971)
(0 -0.000419134584 0.0004209105297)
(0 -0.000152668889 0.0001481066284)
(0 -5.367868956e-05 4.99549445e-05)
(0 -1.815525713e-05 1.614708319e-05)
(0 -5.896102231e-06 5.004270652e-06)
(0 -1.836555659e-06 1.486495765e-06)
(0 -5.479362021e-07 4.228576702e-07)
(0 -1.569834396e-07 1.146317922e-07)
(0 -4.343396724e-08 2.823443158e-08)
(0 -1.214080558e-08 8.893845946e-09)
(0 -2.023467596e-09 6.446861876e-09)
(0 1.882295438e-09 2.776385772e-09)
(0 -1.505836351e-09 5.693943701e-09)
(0 -1.835238052e-09 4.564566438e-09)
(0 -6.117460175e-10 2.823443158e-09)
(0 3.246959631e-09 -7.999755613e-10)
(0 5.693943701e-09 1.411721579e-09)
(0 1.882295438e-10 3.764590877e-10)
(0 -8.046812999e-09 9.882051051e-10)
(0 -6.540976648e-09 -3.858705649e-09)
(0 -1.552893737e-09 -8.140927771e-09)
(0 3.294017017e-10 -2.117582368e-09)
(0 7.717411297e-09 -2.164639754e-09)
(0 9.929108437e-09 -1.694065895e-09)
(0 3.670476105e-09 1.835238052e-09)
(0 0 7.999755613e-10)
(0 0 2.870500543e-09)
(0 -2.541098842e-09 2.635213614e-09)
(0 -6.917435736e-09 1.458778965e-09)
(0 -1394.606078 7733.509522)
(0 -3918.376858 8230.652394)
(0 -5757.589012 8399.894347)
(0 -6522.323761 7605.710392)
(0 -6099.151347 5876.629845)
(0 -5205.839047 3891.578276)
(0 -4650.952367 1985.854019)
(0 -2311.47208 77.65450996)
(0 -72.35114696 30.3279394)
(0 -25.98867579 16.4167926)
(0 -14.2083063 8.515359652)
(0 -7.188961109 4.24070253)
(0 -3.376774883 2.04726167)
(0 -1.492185638 0.9679653988)
(0 -0.6318555823 0.4509101204)
(0 -0.2614182892 0.2068894365)
(0 -0.1073291712 0.09300033603)
(0 -0.04404149259 0.04065200098)
(0 -0.01802105145 0.017158656)
(0 -0.007290019413 0.006956759288)
(0 -0.002885311997 0.002700396469)
(0 -0.001107374735 0.001001918286)
(0 -0.0004095542649 0.0003551558326)
(0 -0.0001454193222 0.0001203147245)
(0 -4.948084134e-05 3.898332673e-05)
(0 -1.612680145e-05 1.209468934e-05)
(0 -5.035375584e-06 3.595560746e-06)
(0 -1.505883408e-06 1.027309793e-06)
(0 -4.329750082e-07 2.817325697e-07)
(0 -1.195257603e-07 7.679765388e-08)
(0 -2.771680033e-08 1.929352824e-08)
(0 -5.129255069e-09 9.834993665e-09)
(0 -1.411721579e-10 4.988082912e-09)
(0 1.176434649e-09 4.752795982e-09)
(0 -3.576361333e-09 7.811526069e-09)
(0 -4.799853368e-09 7.011550508e-09)
(0 2.917557929e-09 3.482246561e-09)
(0 4.705738596e-09 -9.882051051e-10)
(0 5.646886315e-10 -3.764590877e-10)
(0 -8.046812999e-09 1.035262491e-09)
(0 -1.157611695e-08 -7.529181753e-10)
(0 0 -3.482246561e-09)
(0 2.823443158e-09 -2.44698407e-09)
(0 5.505714157e-09 -1.035262491e-09)
(0 9.740878893e-09 -1.317606807e-09)
(0 4.846910754e-09 -1.552893737e-09)
(0 8.940903332e-10 9.411477192e-11)
(0 -9.411477192e-11 8.470329473e-10)
(0 -1.74112328e-09 0)
(0 -7.952698227e-09 1.882295438e-09)
(0 -1095.562637 5565.865806)
(0 -3321.140398 6144.459686)
(0 -5533.188051 6822.353896)
(0 -7292.023769 7007.624431)
(0 -7763.018668 6042.249109)
(0 -7159.1817 4147.387772)
(0 -6632.288541 2141.299691)
(0 -3332.199459 86.58850353)
(0 -104.3375932 35.57296126)
(0 -37.31433861 20.32619536)
(0 -20.59370905 11.39285159)
(0 -10.66578221 6.24044219)
(0 -5.20051905 3.340253635)
(0 -2.421284181 1.745329409)
(0 -1.095590442 0.8869597573)
(0 -0.4890048325 0.4359690271)
(0 -0.2168427691 0.206082878)
(0 -0.09535070489 0.09324481911)
(0 -0.04124319563 0.04025630549)
(0 -0.01737707093 0.0165554461)
(0 -0.007072318251 0.006482228843)
(0 -0.002764375268 0.00241724239)
(0 -0.001034272451 0.0008591974227)
(0 -0.0003698511484 0.0002914372144)
(0 -0.0001263751981 9.446149074e-05)
(0 -4.128391528e-05 2.929778733e-05)
(0 -1.290398226e-05 8.708063386e-06)
(0 -3.861764379e-06 2.483735888e-06)
(0 -1.107495579e-06 6.811086044e-07)
(0 -3.058730087e-07 1.815944524e-07)
(0 -7.915052318e-08 4.733973027e-08)
(0 -1.632891293e-08 9.693821507e-09)
(0 -3.105787473e-09 1.552893737e-09)
(0 1.411721579e-09 -2.729328386e-09)
(0 2.823443158e-10 9.882051051e-10)
(0 -4.846910754e-09 6.023345403e-09)
(0 -4.799853368e-09 4.89396814e-09)
(0 1.882295438e-09 -4.376336894e-09)
(0 2.21169714e-09 -2.635213614e-09)
(0 -8.423272087e-09 -4.282222122e-09)
(0 -1.115260047e-08 -2.070524982e-09)
(0 -3.246959631e-09 -7.058607894e-10)
(0 2.823443158e-09 -3.482246561e-09)
(0 8.84678856e-09 -6.117460175e-10)
(0 9.411477192e-09 -9.411477192e-11)
(0 5.035140298e-09 -8.940903332e-10)
(0 2.44698407e-09 -1.647008509e-09)
(0 -9.411477192e-11 -2.352869298e-10)
(0 -1.505836351e-09 9.411477192e-11)
(0 -8.799731174e-09 -1.035262491e-09)
(0 -816.0121979 4367.882686)
(0 -2661.888768 4903.639767)
(0 -4894.424267 5647.608224)
(0 -7302.428547 6212.293184)
(0 -8959.388006 5962.489684)
(0 -9106.788464 4294.331)
(0 -8711.751635 2271.74893)
(0 -4417.19881 99.95005418)
(0 -138.6134551 46.27028319)
(0 -50.16878546 28.86636952)
(0 -28.29405947 17.80433356)
(0 -15.24155907 10.73185158)
(0 -7.871887664 6.263669174)
(0 -3.945479516 3.514690338)
(0 -1.941215965 1.885468089)
(0 -0.9422951684 0.9630428181)
(0 -0.4500533794 0.4671147449)
(0 -0.209868065 0.2148699223)
(0 -0.0947104245 0.09370810293)
(0 -0.04106409606 0.03876459732)
(0 -0.01702351566 0.01522583966)
(0 -0.006730406108 0.005685723058)
(0 -0.002535359441 0.002021610712)
(0 -0.0009101553013 0.0006854884706)
(0 -0.0003116203155 0.0002220164646)
(0 -0.0001018801817 6.879366311e-05)
(0 -3.184937996e-05 2.042539955e-05)
(0 -9.532791133e-06 5.819586921e-06)
(0 -2.735116444e-06 1.591951367e-06)
(0 -7.533416918e-07 4.177754725e-07)
(0 -1.996174312e-07 1.06443807e-07)
(0 -5.086903422e-08 2.202285663e-08)
(0 -1.261137944e-08 1.270549421e-09)
(0 6.117460175e-10 -4.18810735e-09)
(0 5.082197684e-09 -2.870500543e-09)
(0 -8.470329473e-10 -7.529181753e-10)
(0 -7.435066981e-09 1.364664193e-09)
(0 -2.776385772e-09 -5.176312455e-10)
(0 6.117460175e-10 -3.670476105e-09)
(0 -7.482124367e-09 -2.541098842e-09)
(0 -7.952698227e-09 -1.647008509e-09)
(0 -1.411721579e-09 -4.705738596e-11)
(0 2.776385772e-09 -4.705738596e-11)
(0 8.987960718e-09 -1.411721579e-10)
(0 9.411477192e-09 -1.129377263e-09)
(0 3.388131789e-09 -3.152844859e-09)
(0 1.505836351e-09 -1.788180666e-09)
(0 1.599951123e-09 -1.647008509e-09)
(0 -2.588156228e-09 -4.705738596e-11)
(0 -6.917435736e-09 -1.929352824e-09)
(0 -559.8055574 3665.962573)
(0 -2041.41486 4172.354078)
(0 -4224.534633 4916.216827)
(0 -6977.142309 5567.142618)
(0 -9680.980853 5709.98212)
(0 -10849.92245 4543.969728)
(0 -10826.66949 2393.181709)
(0 -5557.678105 124.7932561)
(0 -175.4212779 68.37800535)
(0 -65.78028823 47.23286374)
(0 -38.72822699 31.83921803)
(0 -22.2064466 20.64782362)
(0 -12.41768029 12.74995997)
(0 -6.799485266 7.452896924)
(0 -3.647237962 4.11213941)
(0 -1.907358176 2.139376271)
(0 -0.9650156648 1.049638321)
(0 -0.4687573468 0.486073066)
(0 -0.2173485206 0.2127395966)
(0 -0.0958593342 0.08814025665)
(0 -0.04015119256 0.03462881811)
(0 -0.01596860412 0.0129247756)
(0 -0.006034507132 0.004591099133)
(0 -0.002169445443 0.00155485763)
(0 -0.0007430700056 0.0005029124011)
(0 -0.0002428749803 0.000155610258)
(0 -7.587801139e-05 4.613289655e-05)
(0 -2.269521256e-05 1.312421083e-05)
(0 -6.509401142e-06 3.586902187e-06)
(0 -1.791333511e-06 9.420418095e-07)
(0 -4.749031391e-07 2.38722119e-07)
(0 -1.215492279e-07 5.717472394e-08)
(0 -2.917557929e-08 1.237609251e-08)
(0 -2.823443158e-09 1.647008509e-09)
(0 3.670476105e-09 -3.294017017e-09)
(0 -5.176312455e-10 -6.070402789e-09)
(0 -4.611623824e-09 -2.44698407e-09)
(0 -3.152844859e-09 2.023467596e-09)
(0 2.352869298e-10 -1.035262491e-09)
(0 -6.446861876e-09 -3.764590877e-10)
(0 -8.61150163e-09 -1.458778965e-09)
(0 -1.694065895e-09 -4.705738596e-11)
(0 2.729328386e-09 0)
(0 7.764468683e-09 -2.588156228e-09)
(0 6.352747104e-09 -3.576361333e-09)
(0 4.42339428e-09 -3.199902245e-09)
(0 3.952820421e-09 -7.058607894e-10)
(0 1.694065895e-09 -1.599951123e-09)
(0 -1.74112328e-09 -4.705738596e-11)
(0 -6.917435736e-09 -2.352869298e-10)
(0 -309.6206934 3252.68013)
(0 -1411.634514 3749.239289)
(0 -3499.635727 4550.097342)
(0 -6508.663255 5325.87384)
(0 -9982.560896 5679.291687)
(0 -12423.58887 4975.682565)
(0 -13130.92811 2638.398339)
(0 -6742.002514 176.9841883)
(0 -216.1738475 114.7972899)
(0 -86.70757278 86.48432895)
(0 -54.87909959 62.12594981)
(0 -34.33081712 42.12866588)
(0 -21.06681436 26.81234958)
(0 -12.58330008 15.98412794)
(0 -7.254736617 8.927519208)
(0 -4.004796257 4.677647583)
(0 -2.103356585 2.303421118)
(0 -1.04676679 1.068226664)
(0 -0.4926432339 0.4675506668)
(0 -0.2191748745 0.1935536515)
(0 -0.0922389967 0.075944376)
(0 -0.03676812514 0.02830064673)
(0 -0.01390527737 0.01003582207)
(0 -0.004998341939 0.003392941619)
(0 -0.001710867687 0.001095562625)
(0 -0.0005586597333 0.0003384259907)
(0 -0.0001743354742 0.0001001722339)
(0 -5.207883256e-05 2.845287196e-05)
(0 -1.491719135e-05 7.768703848e-06)
(0 -4.10152176e-06 2.039702394e-06)
(0 -1.084531574e-06 5.161254092e-07)
(0 -2.772150607e-07 1.259255648e-07)
(0 -6.813909487e-08 2.941086622e-08)
(0 -1.510542089e-08 6.070402789e-09)
(0 -2.588156228e-09 -4.282222122e-09)
(0 0 -5.976288017e-09)
(0 6.588034034e-10 -2.21169714e-09)
(0 -1.411721579e-09 1.882295438e-10)
(0 -1.788180666e-09 -2.399926684e-09)
(0 -7.905640841e-09 -4.18810735e-09)
(0 -7.576239139e-09 -2.823443158e-10)
(0 0 4.705738596e-11)
(0 3.294017017e-10 0)
(0 5.364541999e-09 -2.635213614e-09)
(0 8.799731174e-09 -2.305811912e-09)
(0 6.258632332e-09 0)
(0 3.105787473e-09 -5.176312455e-10)
(0 2.21169714e-09 -7.999755613e-10)
(0 -1.223492035e-09 -7.058607894e-10)
(0 -6.588034034e-09 -9.411477192e-11)
(0 -63.24639883 3045.777084)
(0 -743.9976489 3514.497191)
(0 -2647.900082 4400.421533)
(0 -5847.947963 5386.856003)
(0 -10031.17213 6039.62005)
(0 -13890.8158 5668.469789)
(0 -15625.36786 3305.133668)
(0 -8081.279154 289.7324619)
(0 -265.9211372 212.5164932)
(0 -118.4516284 169.3352098)
(0 -83.08389005 126.1631469)
(0 -57.52004684 87.4823999)
(0 -38.56221823 56.40502657)
(0 -24.68431564 33.86271656)
(0 -14.95371832 18.97446746)
(0 -8.531456267 9.950412399)
(0 -4.574436584 4.896984728)
(0 -2.304627798 2.267705801)
(0 -1.092021533 0.9906346489)
(0 -0.487465625 0.4092120431)
(0 -0.2054041973 0.1602036666)
(0 -0.0818771581 0.05956774095)
(0 -0.03094221229 0.02107838511)
(0 -0.01110970484 0.007111711542)
(0 -0.00379758568 0.002291913184)
(0 -0.001238265419 0.000706709187)
(0 -0.0003858510831 0.0002088314086)
(0 -0.0001150987426 5.922515542e-05)
(0 -3.292252365e-05 1.614327154e-05)
(0 -9.043817835e-06 4.235164736e-06)
(0 -2.388727026e-06 1.069002637e-06)
(0 -6.083108283e-07 2.597567705e-07)
(0 -1.490777987e-07 6.220986424e-08)
(0 -3.646947412e-08 1.251726466e-08)
(0 -8.235042543e-09 5.176312455e-10)
(0 1.505836351e-09 -7.058607894e-10)
(0 1.505836351e-09 1.411721579e-10)
(0 -3.388131789e-09 -1.458778965e-09)
(0 -4.046935192e-09 -2.117582368e-09)
(0 -4.42339428e-09 -3.246959631e-09)
(0 -4.42339428e-09 1.129377263e-09)
(0 -1.317606807e-09 2.823443158e-10)
(0 -4.705738596e-11 0)
(0 5.458656771e-09 2.399926684e-09)
(0 9.08207549e-09 4.235164736e-10)
(0 6.164517561e-09 -2.352869298e-10)
(0 3.105787473e-09 1.411721579e-10)
(0 1.552893737e-09 -4.705738596e-11)
(0 -9.411477192e-10 -1.599951123e-09)
(0 -6.211574947e-09 6.117460175e-10)
(0 159.099413 3030.88199)
(0 -56.99006566 3409.081229)
(0 -1627.276915 4345.059486)
(0 -4869.464738 5580.949609)
(0 -9700.947109 6645.537444)
(0 -15158.07526 6744.880518)
(0 -18509.66543 4555.818097)
(0 -9834.619689 519.8129696)
(0 -336.5710996 414.036227)
(0 -173.0609191 340.2576218)
(0 -136.7319095 257.8496599)
(0 -104.0889375 180.2190055)
(0 -74.6864977 116.5111741)
(0 -50.01385919 69.93085236)
(0 -31.16704078 39.11296614)
(0 -18.08227899 20.45683433)
(0 -9.786063183 10.03714278)
(0 -4.953116869 4.633449969)
(0 -2.351136992 2.017837992)
(0 -1.049605857 0.8310584036)
(0 -0.4418832989 0.3244441582)
(0 -0.1758934067 0.1203218899)
(0 -0.06636130673 0.04247363935)
(0 -0.02378481391 0.0142983127)
(0 -0.008115870042 0.004598455567)
(0 -0.002641741414 0.001415234271)
(0 -0.0008218195057 0.0004174636703)
(0 -0.0002447669225 0.0001182024125)
(0 -6.990727615e-05 3.217012311e-05)
(0 -1.917583772e-05 8.427648423e-06)
(0 -5.05993954e-06 2.125911525e-06)
(0 -1.283960776e-06 5.174900734e-07)
(0 -3.154256581e-07 1.223021461e-07)
(0 -7.679765388e-08 2.625802136e-08)
(0 -1.57642243e-08 4.564566438e-09)
(0 -3.764590877e-10 2.823443158e-09)
(0 -4.705738596e-11 -4.705738596e-11)
(0 -3.717533491e-09 -2.494041456e-09)
(0 -3.764590877e-09 -1.788180666e-09)
(0 -4.564566438e-09 -9.882051051e-10)
(0 -3.952820421e-09 3.764590877e-10)
(0 -1.082319877e-09 7.058607894e-10)
(0 2.399926684e-09 4.705738596e-11)
(0 5.788058473e-09 2.352869298e-10)
(0 6.164517561e-09 7.999755613e-10)
(0 5.929230631e-09 0)
(0 3.294017017e-09 0)
(0 4.705738596e-10 0)
(0 -5.646886315e-10 -1.035262491e-09)
(0 -5.552771543e-09 -8.940903332e-10)
(0 314.9528407 3219.778109)
(0 570.1798475 3425.847362)
(0 -476.0317028 4299.55257)
(0 -3547.470005 5751.397529)
(0 -8867.241218 7260.57928)
(0 -15980.53515 7953.893998)
(0 -21850.43541 6217.074706)
(0 -12223.06102 957.5687689)
(0 -445.476485 818.3501397)
(0 -274.6381954 682.8589956)
(0 -243.1225064 519.8125057)
(0 -198.8585327 362.9564405)
(0 -148.8503713 233.8215351)
(0 -102.0825236 139.7001637)
(0 -64.42773635 77.75670484)
(0 -37.60727963 40.47469263)
(0 -20.39782094 19.76958253)
(0 -10.32393258 9.088229155)
(0 -4.894413099 3.942771338)
(0 -2.180859459 1.618216852)
(0 -0.916140711 0.6297597833)
(0 -0.3638476769 0.23288279)
(0 -0.1369657894 0.08199463159)
(0 -0.04898488867 0.02753766152)
(0 -0.01668066411 0.008837353554)
(0 -0.00541925741 0.002714483992)
(0 -0.001682882895 0.0007992765709)
(0 -0.0005003922898 0.0002259381801)
(0 -0.0001426972407 6.140052426e-05)
(0 -3.908812353e-05 1.60611564e-05)
(0 -1.029888538e-05 4.049476291e-06)
(0 -2.611920208e-06 9.842522847e-07)
(0 -6.402627934e-07 2.296400435e-07)
(0 -1.542070538e-07 5.19513541e-08)
(0 -3.162256336e-08 1.091731354e-08)
(0 -3.152844859e-09 1.599951123e-09)
(0 -3.764590877e-09 -1.74112328e-09)
(0 -5.176312455e-09 -3.246959631e-09)
(0 -2.44698407e-09 -2.44698407e-09)
(0 -2.258754526e-09 -7.999755613e-10)
(0 -2.776385772e-09 4.235164736e-10)
(0 -1.74112328e-09 -2.352869298e-10)
(0 -4.235164736e-10 -4.705738596e-11)
(0 6.258632332e-09 -2.635213614e-09)
(0 8.799731174e-09 -7.529181753e-10)
(0 5.364541999e-09 2.352869298e-10)
(0 3.105787473e-09 -1.411721579e-10)
(0 5.176312455e-10 0)
(0 -1.929352824e-09 4.705738596e-11)
(0 -4.18810735e-09 -1.788180666e-09)
(0 365.1686663 3527.489841)
(0 1022.784395 3621.231004)
(0 698.2732518 4243.291199)
(0 -1908.438028 5818.885395)
(0 -7498.45064 7791.648446)
(0 -16201.57983 9168.993897)
(0 -25505.99066 8077.136286)
(0 -15233.34425 1788.058462)
(0 -611.2808729 1611.487642)
(0 -471.5985531 1348.433829)
(0 -456.6344645 1021.948939)
(0 -390.079908 708.5651517)
(0 -297.9427745 452.9876196)
(0 -206.0786895 268.6485698)
(0 -130.3925119 148.5136212)
(0 -76.06940129 76.83327574)
(0 -41.17252666 37.32439948)
(0 -20.77992806 17.07549654)
(0 -9.821149295 7.376231638)
(0 -4.362617412 3.015916093)
(0 -1.827217361 1.169742648)
(0 -0.7236585584 0.4312652313)
(0 -0.2717064353 0.1514333297)
(0 -0.09694209185 0.05073538047)
(0 -0.03293904757 0.01624638966)
(0 -0.01067981835 0.004980367994)
(0 -0.003310365318 0.001463823469)
(0 -0.0009826430633 0.0004131111444)
(0 -0.0002797842057 0.0001120954932)
(0 -7.652688569e-05 2.9283576e-05)
(0 -2.01367966e-05 7.373421806e-06)
(0 -5.103797024e-06 1.791098224e-06)
(0 -1.247773646e-06 4.17587243e-07)
(0 -2.955203838e-07 9.359714067e-08)
(0 -6.611562727e-08 1.966998733e-08)
(0 -1.30819533e-08 -3.764590877e-10)
(0 -4.89396814e-09 -4.18810735e-09)
(0 -4.376336894e-09 -1.97641021e-09)
(0 -1.270549421e-09 -1.411721579e-10)
(0 -1.788180666e-09 -9.411477192e-11)
(0 -3.388131789e-09 -4.705738596e-11)
(0 -1.552893737e-09 -7.058607894e-10)
(0 4.705738596e-11 0)
(0 5.035140298e-09 -2.823443158e-10)
(0 9.08207549e-09 -2.729328386e-09)
(0 6.588034034e-09 -1.882295438e-10)
(0 3.058730087e-09 0)
(0 7.058607894e-10 -1.882295438e-10)
(0 -2.352869298e-09 1.882295438e-10)
(0 -3.952820421e-09 -1.882295438e-10)
(0 408.6940038 3872.513625)
(0 1285.981206 3915.762354)
(0 1721.622688 4264.385086)
(0 0.8872416314 5778.937962)
(0 -5517.132716 8244.219397)
(0 -15695.04731 10515.38617)
(0 -29231.37085 10322.50026)
(0 -18688.70967 3365.539344)
(0 -885.1011179 3128.796842)
(0 -864.1768981 2596.325348)
(0 -882.9911833 1945.339902)
(0 -767.819852 1333.331011)
(0 -588.7669533 843.4182307)
(0 -406.5565219 495.532164)
(0 -256.2430304 271.7149864)
(0 -148.7965014 139.5841094)
(0 -80.15560014 67.39619081)
(0 -40.27210042 30.67092146)
(0 -18.95399355 13.1886094)
(0 -8.387348449 5.370904376)
(0 -3.500791572 2.07584595)
(0 -1.382156995 0.7629667654)
(0 -0.5174956402 0.2671721697)
(0 -0.1841718288 0.08929324335)
(0 -0.06243567654 0.02853072502)
(0 -0.02020182355 0.008728916255)
(0 -0.006250139886 0.002561012822)
(0 -0.001852120219 0.0007215787563)
(0 -0.0005265248562 0.0001955059333)
(0 -0.0001438101479 5.100394775e-05)
(0 -3.779131609e-05 1.282751401e-05)
(0 -9.567707713e-06 3.114257803e-06)
(0 -2.337810934e-06 7.29107138e-07)
(0 -5.521713668e-07 1.64842023e-07)
(0 -1.256432205e-07 3.378720312e-08)
(0 -2.691682477e-08 2.164639754e-09)
(0 -5.411599385e-09 -3.670476105e-09)
(0 -1.129377263e-09 -4.705738596e-10)
(0 -5.646886315e-10 1.035262491e-09)
(0 -2.117582368e-09 6.117460175e-10)
(0 -3.388131789e-09 -4.705738596e-11)
(0 -1.694065895e-09 -4.705738596e-11)
(0 0 0)
(0 3.482246561e-09 2.823443158e-10)
(0 8.799731174e-09 -2.588156228e-09)
(0 8.187985157e-09 -1.411721579e-10)
(0 3.058730087e-09 -1.035262491e-09)
(0 7.058607894e-10 -4.705738596e-11)
(0 -1.788180666e-09 -1.882295438e-10)
(0 -4.282222122e-09 -1.411721579e-10)
(0 408.4173961 4276.213454)
(0 1414.655856 4300.412215)
(0 2561.448859 4539.17007)
(0 2071.396284 5669.419208)
(0 -2762.002428 8633.667531)
(0 -14123.29897 12129.8154)
(0 -32655.83749 13433.48616)
(0 -22427.04767 6307.528156)
(0 -1380.494869 5939.275014)
(0 -1655.055492 4840.953216)
(0 -1719.628802 3565.906627)
(0 -1492.00158 2407.778696)
(0 -1135.741621 1503.760398)
(0 -777.7819338 874.0321656)
(0 -486.3405665 474.9268288)
(0 -280.3881968 242.1149029)
(0 -150.0857145 116.1449281)
(0 -74.98750948 52.5638803)
(0 -35.12116638 22.49558729)
(0 -15.47538086 9.123578963)
(0 -6.435154972 3.513706241)
(0 -2.532332339 1.287425581)
(0 -0.9453799573 0.4495890487)
(0 -0.3355835366 0.1498949573)
(0 -0.1135033746 0.04779032357)
(0 -0.03664953059 0.01459297024)
(0 -0.01131770282 0.004273996962)
(0 -0.003348149952 0.001202310282)
(0 -0.0009503589672 0.0003252867686)
(0 -0.000259205305 8.474696398e-05)
(0 -6.80265336e-05 2.128989078e-05)
(0 -1.72022039e-05 5.162854043e-06)
(0 -4.197095311e-06 1.209704221e-06)
(0 -9.908403187e-07 2.749092488e-07)
(0 -2.288871253e-07 5.985699494e-08)
(0 -5.053963252e-08 9.976165823e-09)
(0 -7.482124367e-09 1.788180666e-09)
(0 3.294017017e-10 1.364664193e-09)
(0 -1.882295438e-10 1.882295438e-09)
(0 -2.870500543e-09 8.470329473e-10)
(0 -4.046935192e-09 3.294017017e-10)
(0 -1.505836351e-09 -4.705738596e-11)
(0 3.294017017e-10 0)
(0 2.494041456e-09 2.352869298e-10)
(0 8.658559016e-09 -2.541098842e-09)
(0 8.093870385e-09 -7.058607894e-10)
(0 3.246959631e-09 -2.117582368e-09)
(0 1.552893737e-09 2.352869298e-10)
(0 -2.541098842e-09 -1.882295438e-10)
(0 -3.576361333e-09 -5.176312455e-10)
(0 432.8927655 4730.320261)
(0 1548.937822 4800.405801)
(0 3090.62968 5027.69893)
(0 4095.384703 5861.066414)
(0 943.2634765 8917.67914)
(0 -10895.22868 14002.87787)
(0 -35053.65809 17825.67928)
(0 -26182.92082 11609.87297)
(0 -2351.676058 10935.75079)
(0 -3237.545285 8687.159157)
(0 -3316.165704 6263.826351)
(0 -2829.96608 4156.091088)
(0 -2122.513483 2558.765165)
(0 -1435.390091 1469.872966)
(0 -888.1602931 790.9952447)
(0 -507.5784021 400.0163787)
(0 -269.7066228 190.6062322)
(0 -133.9214412 85.77560768)
(0 -62.39429488 36.53285728)
(0 -27.3692295 14.75577763)
(0 -11.33694495 5.662633497)
(0 -4.446274188 2.068393581)
(0 -1.655026264 0.7203638624)
(0 -0.5859705539 0.239600416)
(0 -0.1977376636 0.07622923737)
(0 -0.06371815016 0.02323297415)
(0 -0.01964079975 0.006792950268)
(0 -0.005800830318 0.001907986418)
(0 -0.001644088221 0.0005154895698)
(0 -0.0004478070727 0.000134131573)
(0 -0.000117375379 3.36532778e-05)
(0 -2.964803545e-05 8.151280396e-06)
(0 -7.225802786e-06 1.907188796e-06)
(0 -1.701924478e-06 4.310456554e-07)
(0 -3.905292461e-07 9.656175599e-08)
(0 -8.507975381e-08 2.27757748e-08)
(0 -1.397604363e-08 6.352747104e-09)
(0 -9.882051051e-10 -9.411477192e-11)
(0 -1.176434649e-09 -1.411721579e-10)
(0 -3.623418719e-09 -9.411477192e-10)
(0 -4.282222122e-09 9.882051051e-10)
(0 -2.070524982e-09 0)
(0 3.294017017e-10 0)
(0 9.411477192e-10 0)
(0 7.858583455e-09 -2.494041456e-09)
(0 8.564444244e-09 -2.682271e-09)
(0 4.093992578e-09 -1.411721579e-09)
(0 2.588156228e-09 0)
(0 -2.588156228e-09 0)
(0 -3.529303947e-09 6.588034034e-10)
(0 478.5029366 5212.722998)
(0 1712.034526 5320.847784)
(0 3622.109472 5612.199899)
(0 5961.376493 6396.428653)
(0 5379.809026 9008.700466)
(0 -5215.298822 15870.87598)
(0 -35048.84239 23625.9624)
(0 -29316.97617 20660.86721)
(0 -4303.20868 19372.73267)
(0 -6326.979931 14913.48678)
(0 -6250.696871 10493.89289)
(0 -5197.062765 6830.154199)
(0 -3821.959743 4141.192517)
(0 -2545.551855 2349.767516)
(0 -1556.197154 1251.910703)
(0 -880.7772093 627.9336035)
(0 -464.3264856 297.182587)
(0 -229.0608844 132.9798605)
(0 -106.1409964 56.36745876)
(0 -46.34560464 22.67464177)
(0 -19.12253902 8.671252389)
(0 -7.474601973 3.157815299)
(0 -2.774173123 1.096892784)
(0 -0.9797181616 0.3639972098)
(0 -0.3298708165 0.1155703869)
(0 -0.1060858177 0.03515944021)
(0 -0.03264269055 0.01026337606)
(0 -0.009625610603 0.002878536392)
(0 -0.002724213812 0.0007766766495)
(0 -0.0007410416911 0.0002018496454)
(0 -0.0001940067791 5.05863605e-05)
(0 -4.894824584e-05 1.223943786e-05)
(0 -1.191733005e-05 2.86353605e-06)
(0 -2.801467358e-06 6.47415516e-07)
(0 -6.371099485e-07 1.440426584e-07)
(0 -1.40701584e-07 3.538715424e-08)
(0 -3.044612872e-08 9.929108437e-09)
(0 -6.211574947e-09 1.694065895e-09)
(0 -9.882051051e-10 -2.917557929e-09)
(0 -1.694065895e-09 -1.082319877e-09)
(0 -3.152844859e-09 4.235164736e-10)
(0 -2.494041456e-09 0)
(0 3.294017017e-10 0)
(0 -4.705738596e-11 0)
(0 6.023345403e-09 -2.823443158e-10)
(0 9.176190262e-09 -1.882295438e-09)
(0 5.929230631e-09 -2.352869298e-10)
(0 2.964615315e-09 0)
(0 -1.882295438e-09 0)
(0 -4.235164736e-09 7.058607894e-10)
(0 541.0175519 5707.863472)
(0 1948.414723 5853.956062)
(0 4166.210549 6274.806697)
(0 7491.88527 7150.249034)
(0 10417.7108 9450.060226)
(0 3722.033253 17032.50193)
(0 -30263.66686 30447.89303)
(0 -30436.15055 34992.92846)
(0 -8099.056493 32742.61493)
(0 -12116.38506 24342.23994)
(0 -11399.49828 16685.34315)
(0 -9182.666452 10643.08653)
(0 -6602.900166 6351.900625)
(0 -4324.671905 3559.258693)
(0 -2609.994206 1877.305687)
(0 -1462.306518 933.9482838)
(0 -764.6603658 439.0516286)
(0 -374.7365695 195.3703157)
(0 -172.6995136 82.42792282)
(0 -75.06543586 33.02724933)
(0 -30.85377143 12.58784214)
(0 -12.02063379 4.570854626)
(0 -4.448844353 1.583735035)
(0 -1.567292951 0.524398082)
(0 -0.5265754332 0.1661758804)
(0 -0.169025161 0.05046807555)
(0 -0.05192170352 0.01470951525)
(0 -0.01528752982 0.004119840777)
(0 -0.004320774921 0.001110215919)
(0 -0.001173897268 0.0002882046073)
(0 -0.0003069856336 7.21528546e-05)
(0 -7.73708599e-05 1.744036133e-05)
(0 -1.881782513e-05 4.076157829e-06)
(0 -4.421511985e-06 9.229365108e-07)
(0 -1.002604665e-06 2.035231943e-07)
(0 -2.191462464e-07 4.766913198e-08)
(0 -4.766913198e-08 1.195257603e-08)
(0 -1.383487147e-08 5.364541999e-09)
(0 -3.999877806e-09 1.694065895e-09)
(0 -2.823443158e-10 4.235164736e-10)
(0 -3.152844859e-09 2.823443158e-10)
(0 -2.494041456e-09 0)
(0 3.294017017e-10 -4.705738596e-11)
(0 7.058607894e-10 -2.823443158e-10)
(0 6.023345403e-09 7.999755613e-10)
(0 8.564444244e-09 3.294017017e-10)
(0 5.929230631e-09 6.588034034e-10)
(0 2.823443158e-09 0)
(0 -1.882295438e-09 0)
(0 -4.235164736e-09 1.882295438e-10)
(0 624.5955267 6177.572876)
(0 2278.977751 6376.780045)
(0 4918.402444 6953.917733)
(0 9136.630022 8174.883875)
(0 15262.06192 10589.31706)
(0 15782.53398 17345.20788)
(0 -17088.41587 37217.04999)
(0 -27022.25427 55625.68213)
(0 -14953.8972 52352.66184)
(0 -22384.2517 37536.99813)
(0 -19949.85028 25048.75775)
(0 -15530.50529 15655.43088)
(0 -10905.78758 9196.964683)
(0 -7020.146793 5089.90247)
(0 -4181.507563 2658.214085)
(0 -2319.031267 1311.940781)
(0 -1202.904454 612.7478507)
(0 -585.6845902 271.2033522)
(0 -268.4840628 113.9120228)
(0 -116.1856853 45.47093127)
(0 -47.57893373 17.2752619)
(0 -18.47870908 6.255768951)
(0 -6.820629666 2.162403607)
(0 -2.397277317 0.7145263506)
(0 -0.8038008229 0.2260149234)
(0 -0.2575521829 0.06853124359)
(0 -0.07899092538 0.01994569091)
(0 -0.02322490993 0.005579230452)
(0 -0.006555850029 0.001501755299)
(0 -0.001779104708 0.0003894372324)
(0 -0.0004647710251 9.740295382e-05)
(0 -0.0001170249426 2.352243435e-05)
(0 -2.843470781e-05 5.490608736e-06)
(0 -6.674007878e-06 1.242644391e-06)
(0 -1.512471442e-06 2.740622158e-07)
(0 -3.323192596e-07 5.971582278e-08)
(0 -7.270366131e-08 1.279960898e-08)
(0 -1.64230277e-08 3.717533491e-09)
(0 -5.929230631e-09 4.282222122e-09)
(0 -3.105787473e-09 1.882295438e-09)
(0 -3.623418719e-09 1.176434649e-09)
(0 -2.729328386e-09 1.788180666e-09)
(0 0 0)
(0 7.999755613e-10 -2.823443158e-10)
(0 6.63509142e-09 3.764590877e-10)
(0 9.035018104e-09 3.294017017e-10)
(0 5.599828929e-09 2.541098842e-09)
(0 2.258754526e-09 1.552893737e-09)
(0 -1.694065895e-09 1.035262491e-09)
(0 -4.376336894e-09 8.940903332e-10)
(0 740.2247214 6562.00502)
(0 2724.759581 6832.767925)
(0 5964.314379 7600.27562)
(0 11127.2846 9306.910965)
(0 19588.03481 12558.70858)
(0 30349.76619 19515.56888)
(0 8016.807392 41956.06073)
(0 -15300.53871 82112.29278)
(0 -26187.74049 78523.38679)
(0 -39420.28915 54320.51977)
(0 -33281.06554 35303.94872)
(0 -25034.45952 21629.23561)
(0 -17168.42858 12512.91583)
(0 -10863.4225 6842.586567)
(0 -6387.955894 3539.82418)
(0 -3507.772752 1733.819394)
(0 -1805.397794 804.8085801)
(0 -873.5723973 354.4115492)
(0 -398.4319345 148.2378924)
(0 -171.7021968 58.96516671)
(0 -70.06893375 22.33536237)
(0 -27.13349209 8.067594442)
(0 -9.990086953 2.782579526)
(0 -3.503681634 0.9177007123)
(0 -1.17257054 0.2897973786)
(0 -0.3750943935 0.08774159833)
(0 -0.1148737167 0.02550331953)
(0 -0.03373146543 0.00712545724)
(0 -0.009510568141 0.001915928152)
(0 -0.002578249566 0.0004963652129)
(0 -0.0006729004786 0.0001240405401)
(0 -0.000169283205 2.99318856e-05)
(0 -4.109761508e-05 6.981527896e-06)
(0 -9.63815262e-06 1.576845946e-06)
(0 -2.185439119e-06 3.449776965e-07)
(0 -4.803617959e-07 7.232720222e-08)
(0 -1.037144787e-07 1.562305214e-08)
(0 -2.230520094e-08 3.246959631e-09)
(0 -5.788058473e-09 -1.270549421e-09)
(0 -3.435189175e-09 1.223492035e-09)
(0 -3.341074403e-09 -5.176312455e-10)
(0 -3.576361333e-09 1.882295438e-10)
(0 -1.788180666e-09 9.411477192e-11)
(0 1.082319877e-09 1.882295438e-10)
(0 6.63509142e-09 9.411477192e-11)
(0 1.068202661e-08 2.823443158e-10)
(0 7.152722666e-09 1.882295438e-09)