/*--------------------------------*- C++ -*----------------------------------*\
  =========                 |
  \\      /  F ield         | OpenFOAM: The Open Source CFD Toolbox
   \\    /   O peration     | Website:  https://openfoam.org
    \\  /    A nd           | Version:  6
     \\/     M anipulation  |
\*---------------------------------------------------------------------------*/
FoamFile
{
    version     2.0;
    format      ascii;
    class       volVectorField;
    location    "0.09";
    object      Marangoni;
}
// * * * * * * * * * * * * * * * * * * * * * * * * * * * * * * * * * * * * * //

dimensions      [1 -2 -2 0 0 0 0];

internalField   nonuniform List<vector> 
2500
(
(-0 6.168387757e-12 -1.023566655e-10)
(-0 8.71763538e-12 -5.808420463e-11)
(-0 1.226757495e-11 -6.610646675e-11)
(-0 2.051278194e-11 -1.013882529e-10)
(-0 1.439000207e-11 -6.193253663e-11)
(-0 3.317319453e-12 -1.098278412e-11)
(-0 2.26314645e-07 -4.232980358e-07)
(-0 3.765183639e-06 -6.059093253)
(-0 1.210976454e-07 -2.301845981)
(-0 1.215029394e-09 -3.311529464e-09)
(-0 3.811764904e-15 -9.31173698e-15)
(-0 2.639694868e-15 -5.844260717e-15)
(-0 1.851201185e-15 -3.792168299e-15)
(-0 7.063739816e-16 -1.374775343e-15)
(-0 3.666440437e-16 -6.978244885e-16)
(-0 8.901642367e-17 -1.702057207e-16)
(-0 7.593009544e-17 -1.486773965e-16)
(-0 1.786708307e-17 -3.606050659e-17)
(-0 8.737103436e-18 -1.805526889e-17)
(-0 3.006102138e-18 -6.264720481e-18)
(-0 1.141220267e-18 -2.357246299e-18)
(-0 4.709382779e-19 -9.498902011e-19)
(-0 1.390487328e-19 -2.709871786e-19)
(-0 5.329268664e-20 -9.96927287e-20)
(-0 1.729539653e-20 -3.091942499e-20)
(-0 5.01698224e-21 -8.546378436e-21)
(-0 1.14186193e-21 -1.856329009e-21)
(-0 3.711204393e-22 -5.762202156e-22)
(-0 6.019062201e-23 -8.813096012e-23)
(-0 3.369833816e-23 -3.081320647e-23)
(-0 1.170950249e-23 2.087740754e-24)
(-0 -2.483226527e-24 1.407161699e-23)
(-0 -1.647136274e-24 5.294366593e-24)
(-0 1.190270127e-24 5.768232153e-24)
(-0 6.57000804e-25 3.942004824e-24)
(-0 -1.984675058e-24 1.476102074e-23)
(-0 -1.506388456e-23 1.455611317e-23)
(-0 -1.840717983e-24 -9.930189118e-25)
(-0 -0 -0)
(-0 0 -0)
(-0 0 0)
(-0 0 0)
(-0 0 0)
(-0 -0 0)
(-0 -0 -0)
(-0 -0 -0)
(-0 0 -0)
(-0 0 -0)
(-0 0 -0)
(-0 0 -0)
(-0 1.27739279e-11 -9.523539108e-11)
(-0 2.69643532e-11 -7.884927507e-11)
(-0 3.985930614e-11 -8.510650573e-11)
(-0 4.819463128e-11 -8.416349307e-11)
(-0 1.341684124e-11 -1.945111005e-11)
(-0 6.499509327e-13 -7.367079627e-13)
(-0 2.672731321e-07 -1.750527827e-07)
(-0 1.048483812e-05 -5.97642643)
(-0 3.339237102e-07 -2.333103572)
(-0 1.364721082e-09 -1.301291299e-09)
(-0 2.908899967e-14 -2.519791692e-14)
(-0 1.765586025e-14 -1.422880406e-14)
(-0 1.298816129e-14 -1.006167151e-14)
(-0 3.826003648e-15 -2.956557814e-15)
(-0 1.610117011e-15 -1.286417515e-15)
(-0 5.371161092e-16 -4.558211705e-16)
(-0 1.024499317e-16 -9.336429954e-17)
(-0 3.94008681e-17 -3.827897744e-17)
(-0 1.375553363e-17 -1.395598332e-17)
(-0 6.965510228e-18 -7.194524402e-18)
(-0 3.278261043e-18 -3.368087357e-18)
(-0 1.750218349e-18 -1.757467304e-18)
(-0 7.949079663e-19 -7.710692357e-19)
(-0 2.196584e-19 -2.043958474e-19)
(-0 1.013483326e-19 -9.012593899e-20)
(-0 3.297074775e-20 -2.797995587e-20)
(-0 8.651240413e-21 -7.001475203e-21)
(-0 3.489791472e-21 -2.692150679e-21)
(-0 6.267006376e-22 -4.572761434e-22)
(-0 1.716438789e-22 -1.110636863e-22)
(-0 3.488642646e-23 -2.548344433e-23)
(-0 1.172744737e-23 -3.736419279e-23)
(-0 -8.085388922e-24 -1.183227647e-23)
(-0 8.500134207e-24 -3.345214107e-23)
(-0 1.092343832e-23 -2.584325651e-23)
(-0 1.815993768e-24 -8.928636028e-24)
(-0 -1.785145134e-23 4.590373201e-24)
(-0 -1.792224599e-23 -4.480561497e-24)
(-0 -0 -0)
(-0 0 -0)
(-0 0 0)
(-0 0 0)
(-0 -0 0)
(-0 -0 0)
(-0 -0 0)
(-0 -0 -0)
(-0 -0 -0)
(-0 -0 -0)
(-0 0 -0)
(-0 0 -0)
(-0 6.102748605e-12 -3.380402398e-11)
(-0 2.68291327e-11 -5.632126551e-11)
(-0 2.256542668e-11 -3.291853402e-11)
(-0 3.956225561e-11 -4.614344606e-11)
(-0 6.46775324e-12 -6.233932252e-12)
(-0 4.200461058e-13 -3.141180969e-13)
(-0 2.097763527e-07 -8.960859715e-08)
(-0 1.762216083e-05 -6.46703391)
(-0 5.534538833e-07 -2.525092154)
(-0 1.144453366e-09 -7.227352447e-10)
(-0 5.997558099e-14 -3.592661486e-14)
(-0 3.934124519e-14 -2.319519262e-14)
(-0 8.828709073e-15 -5.350166096e-15)
(-0 2.130030989e-15 -1.381211598e-15)
(-0 2.017807662e-15 -1.439586719e-15)
(-0 1.540830278e-15 -1.219242626e-15)
(-0 5.230007918e-16 -4.531446839e-16)
(-0 2.082642336e-16 -1.922297054e-16)
(-0 1.018989971e-16 -9.702037762e-17)
(-0 4.359827472e-17 -4.160382505e-17)
(-0 1.266353439e-17 -1.185135525e-17)
(-0 3.172666682e-18 -2.870338487e-18)
(-0 4.177343132e-19 -3.622199688e-19)
(-0 3.552265345e-19 -2.938746582e-19)
(-0 3.975693957e-20 -3.131917908e-20)
(-0 2.89185773e-20 -2.1686029e-20)
(-0 6.444059045e-21 -4.600763643e-21)
(-0 4.781057605e-21 -3.261320844e-21)
(-0 2.05273199e-21 -1.335431283e-21)
(-0 4.722809137e-22 -3.036358685e-22)
(-0 1.346647951e-22 -9.352998566e-23)
(-0 2.49191066e-23 -4.867376896e-23)
(-0 2.23712235e-25 -2.371349691e-23)
(-0 -5.672604428e-24 -2.38722103e-23)
(-0 2.090758258e-23 -4.480196268e-23)
(-0 2.632454035e-23 -3.8835213e-23)
(-0 -1.398497767e-23 -1.669174755e-23)
(-0 -2.218313638e-23 4.436627275e-24)
(-0 -7.817447776e-25 4.560177869e-25)
(-0 0 -0)
(-0 0 0)
(-0 -0 0)
(-0 -0 0)
(-0 -0 0)
(-0 -0 0)
(-0 -0 0)
(-0 -0 -0)
(-0 0 -0)
(-0 0 -0)
(-0 0 -0)
(-0 2.29460221e-12 -1.164927637e-11)
(-0 1.936171888e-11 -3.581518717e-11)
(-0 1.768582191e-11 -2.181321659e-11)
(-0 4.396844388e-11 -4.227705566e-11)
(-0 4.626007154e-11 -3.602746363e-11)
(-0 3.427520539e-12 -1.986750514e-12)
(-0 2.193375478e-07 -7.08535227e-08)
(-0 2.541690627e-05 -7.212349131)
(-0 7.945166797e-07 -2.961652463)
(-0 1.198563779e-09 -6.526483044e-10)
(-0 9.273624668e-14 -5.127719232e-14)
(-0 2.107859101e-14 -1.2326781e-14)
(-0 3.428352412e-14 -2.201095894e-14)
(-0 1.812732568e-14 -1.306278064e-14)
(-0 7.380094277e-15 -5.97362543e-15)
(-0 2.94642329e-15 -2.626618074e-15)
(-0 1.014377378e-15 -9.640021151e-16)
(-0 3.087350473e-16 -3.019085482e-16)
(-0 9.391729054e-17 -9.166714072e-17)
(-0 4.998214799e-17 -4.761673289e-17)
(-0 3.937282135e-17 -3.608549423e-17)
(-0 7.780997878e-18 -6.803401604e-18)
(-0 5.15614901e-18 -4.282983679e-18)
(-0 1.428759783e-18 -1.125736288e-18)
(-0 7.863760704e-19 -5.877332074e-19)
(-0 1.241111781e-19 -8.806827803e-20)
(-0 4.446632964e-20 -3.000428663e-20)
(-0 1.705972494e-20 -1.097132429e-20)
(-0 2.527880764e-21 -1.554721728e-21)
(-0 4.319479195e-22 -2.564022536e-22)
(-0 3.901866678e-22 -2.335048879e-22)
(-0 5.817577001e-23 -3.466870015e-23)
(-0 1.438666423e-23 -6.975352356e-24)
(-0 -3.371853292e-24 6.859977387e-24)
(-0 -1.331918788e-24 -4.661715758e-24)
(-0 2.13061662e-23 -2.647756577e-23)
(-0 2.62982474e-23 -2.735017729e-23)
(-0 -8.55648038e-24 1.989381688e-23)
(-0 -6.930447763e-24 8.257554781e-24)
(-0 2.167687624e-24 1.102008792e-24)
(-0 0 0)
(-0 0 0)
(-0 -0 0)
(-0 -0 0)
(-0 -0 0)
(-0 -0 0)
(-0 -0 0)
(-0 0 0)
(-0 0 -0)
(-0 0 0)
(-0 1.495463095e-13 -8.003070674e-13)
(-0 7.615638075e-12 -1.403343799e-11)
(-0 2.66332387e-11 -3.075268477e-11)
(-0 1.361396365e-11 -1.159100781e-11)
(-0 5.623030854e-11 -3.744979507e-11)
(-0 4.293258547e-11 -2.02592141e-11)
(-0 7.12233421e-07 -1.859347758e-07)
(-0 3.370432073e-05 -8.326432365)
(-0 1.052647734e-06 -3.852208945)
(-0 3.947742365e-09 -2.271327373e-09)
(-0 8.681219566e-14 -5.459993535e-14)
(-0 8.435648277e-14 -5.937003953e-14)
(-0 4.842797397e-14 -3.852081133e-14)
(-0 9.062625805e-15 -8.071255877e-15)
(-0 5.64876565e-15 -5.485804367e-15)
(-0 9.338886936e-16 -9.543796485e-16)
(-0 1.05593434e-15 -1.095910341e-15)
(-0 5.358971627e-16 -5.486437706e-16)
(-0 1.989954617e-16 -1.968786094e-16)
(-0 7.896856072e-17 -7.45414844e-17)
(-0 2.564417141e-17 -2.293435503e-17)
(-0 4.438260194e-18 -3.749030548e-18)
(-0 3.78005929e-18 -3.013805742e-18)
(-0 1.511561154e-18 -1.138326032e-18)
(-0 7.907833809e-19 -5.633411816e-19)
(-0 3.898291563e-19 -2.632003437e-19)
(-0 1.662029214e-19 -1.065762935e-19)
(-0 3.970575646e-20 -2.423735755e-20)
(-0 1.355467582e-20 -7.888373068e-21)
(-0 3.509150435e-21 -1.945560636e-21)
(-0 1.196395892e-21 -6.37623984e-22)
(-0 1.035167825e-22 -4.472233434e-23)
(-0 3.461149458e-23 -3.383078417e-24)
(-0 -1.826540486e-24 1.250477717e-23)
(-0 -1.505727143e-23 8.288406292e-24)
(-0 5.148275544e-24 4.29022962e-24)
(-0 3.173213756e-23 -5.824253097e-24)
(-0 1.541255311e-23 3.134756565e-24)
(-0 -1.970172397e-24 1.111740138e-23)
(-0 8.802230354e-24 2.878716845e-24)
(-0 0 0)
(-0 0 0)
(-0 -0 0)
(-0 -0 0)
(-0 -0 0)
(-0 -0 0)
(-0 -0 0)
(-0 -0 0)
(-0 0 -0)
(-0 0 0)
(-0 8.874891575e-14 -5.813049977e-13)
(-0 9.962725618e-13 -2.037488793e-12)
(-0 1.546733655e-11 -1.801432977e-11)
(-0 2.700490474e-11 -2.156413205e-11)
(-0 2.933267695e-11 -1.731211725e-11)
(-0 7.270046753e-11 -3.046164767e-11)
(-0 1.49531223e-06 -3.311423442e-07)
(-0 4.241082131e-05 -10.39524802)
(-0 1.333362401e-06 -5.692702151)
(-0 8.716372016e-09 -6.26274368e-09)
(-0 7.917890301e-14 -6.506448311e-14)
(-0 1.619266625e-13 -1.505040418e-13)
(-0 2.09560605e-14 -2.151094265e-14)
(-0 1.041311018e-14 -1.141176803e-14)
(-0 4.369626509e-15 -4.926061617e-15)
(-0 5.434651519e-15 -6.09526886e-15)
(-0 1.973634773e-15 -2.146558869e-15)
(-0 9.125470938e-16 -9.461901783e-16)
(-0 2.652625864e-16 -2.596175809e-16)
(-0 1.978126826e-16 -1.818682436e-16)
(-0 3.96215222e-17 -3.416882056e-17)
(-0 3.074989259e-17 -2.488608979e-17)
(-0 1.149495836e-17 -8.7445461e-18)
(-0 1.668493276e-18 -1.195693575e-18)
(-0 2.193482589e-18 -1.484394132e-18)
(-0 7.763174563e-19 -4.973319417e-19)
(-0 2.441341535e-19 -1.484142885e-19)
(-0 4.58557982e-20 -2.651431699e-20)
(-0 2.164601908e-20 -1.192614318e-20)
(-0 7.677140058e-21 -4.036982156e-21)
(-0 2.649970044e-21 -1.332247022e-21)
(-0 6.741396896e-22 -3.165936393e-22)
(-0 6.344576086e-23 -2.683848231e-23)
(-0 1.009999622e-23 -6.094825306e-24)
(-0 -1.286465908e-23 1.154520686e-23)
(-0 2.113290229e-24 2.726144395e-23)
(-0 2.743036834e-23 1.42749876e-23)
(-0 1.517873481e-23 -9.598317602e-24)
(-0 -7.907529715e-25 3.479313075e-24)
(-0 8.64134053e-24 6.400992985e-25)
(-0 0 0)
(-0 0 0)
(-0 -0 0)
(-0 -0 0)
(-0 -0 0)
(-0 -0 0)
(-0 -0 0)
(-0 -0 0)
(-0 0 0)
(-0 0 0)
(-0 5.215079586e-14 -5.482612968e-13)
(-0 5.553067364e-14 -1.47608875e-13)
(-0 7.696848208e-12 -1.001413703e-11)
(-0 2.28075502e-11 -1.867158903e-11)
(-0 2.248324184e-11 -1.279407905e-11)
(-0 6.243801064e-11 -2.500994708e-11)
(-0 2.100668195e-06 -4.227769315e-07)
(-0 5.144756504e-05 -14.73802678)
(-0 1.646572767e-06 -9.557053023)
(-0 1.297449973e-08 -1.295351402e-08)
(-0 4.165304942e-13 -4.713502254e-13)
(-0 1.382498148e-13 -1.696013698e-13)
(-0 2.837646637e-14 -3.610810046e-14)
(-0 2.01226129e-14 -2.555745726e-14)
(-0 2.071213944e-14 -2.548526983e-14)
(-0 7.206234182e-15 -8.416226847e-15)
(-0 5.634902041e-15 -6.170353782e-15)
(-0 3.762717025e-15 -3.839519675e-15)
(-0 1.393847286e-15 -1.3227291e-15)
(-0 3.860389956e-16 -3.408780148e-16)
(-0 1.270901591e-16 -1.046280543e-16)
(-0 4.47897777e-17 -3.447127264e-17)
(-0 1.65316704e-17 -1.193005095e-17)
(-0 8.916610311e-18 -6.052035989e-18)
(-0 2.18828417e-18 -1.401119207e-18)
(-0 2.690475903e-18 -1.629653743e-18)
(-0 3.68094863e-19 -2.114807817e-19)
(-0 1.762227618e-19 -9.626638021e-20)
(-0 5.972118078e-20 -3.109914491e-20)
(-0 1.386534807e-20 -6.894613173e-21)
(-0 5.591675832e-21 -2.660565273e-21)
(-0 1.234223751e-21 -5.607425988e-22)
(-0 9.70892236e-23 -4.183135416e-23)
(-0 1.402585761e-23 -5.601521748e-24)
(-0 9.185936922e-24 1.577208037e-23)
(-0 -1.222978198e-35 3.712189572e-23)
(-0 -2.923696796e-24 1.079518817e-23)
(-0 5.038573072e-24 -6.71809743e-25)
(-0 8.274356496e-24 1.11050574e-23)
(-0 2.266989516e-23 1.200964684e-23)
(-0 0 0)
(-0 -0 -0)
(-0 -0 -0)
(-0 -0 0)
(-0 -0 0)
(-0 -0 -0)
(-0 -0 0)
(-0 -0 0)
(-0 0 0)
(-0 0 0)
(-0 3.764496479e-14 -1.819284087e-12)
(-0 2.437752425e-14 -1.1529541e-13)
(-0 5.0106696e-12 -8.331499632e-12)
(-0 1.69024977e-11 -1.557206579e-11)
(-0 1.226212877e-11 -7.381985777e-12)
(-0 5.034559531e-11 -2.054019961e-11)
(-0 2.699332111e-06 -5.717699169e-07)
(-0 6.166442771e-05 -24.12244087)
(-0 2.023307668e-06 -17.69249397)
(-0 1.843000166e-08 -2.637685466e-08)
(-0 4.036899569e-13 -6.128173583e-13)
(-0 4.456038622e-14 -6.775698141e-14)
(-0 3.16601302e-14 -4.630190669e-14)
(-0 5.065609536e-14 -6.948309328e-14)
(-0 2.346631908e-14 -2.977283308e-14)
(-0 1.359277395e-14 -1.585198322e-14)
(-0 8.639901655e-15 -9.248207276e-15)
(-0 5.68687413e-15 -5.595204378e-15)
(-0 4.628713512e-15 -4.198532206e-15)
(-0 1.433948619e-15 -1.203625496e-15)
(-0 2.970288898e-16 -2.31640192e-16)
(-0 3.08958165e-17 -2.247496795e-17)
(-0 4.3321943e-17 -2.950829425e-17)
(-0 1.815069705e-17 -1.161754797e-17)
(-0 1.00765052e-17 -6.080643698e-18)
(-0 1.448701984e-18 -8.26712987e-19)
(-0 1.103121583e-18 -5.969634716e-19)
(-0 2.313179042e-19 -1.190128381e-19)
(-0 8.913139494e-20 -4.369970713e-20)
(-0 3.666934429e-20 -1.716970297e-20)
(-0 9.945152634e-21 -4.450075131e-21)
(-0 2.477249866e-21 -1.057851604e-21)
(-0 3.815379955e-22 -1.593275529e-22)
(-0 1.0606717e-22 -3.650363641e-23)
(-0 3.66057742e-23 -2.103780126e-24)
(-0 -6.176541949e-24 3.088270974e-24)
(-0 -5.651615466e-24 -5.137832242e-25)
(-0 1.681363477e-23 7.140036682e-24)
(-0 1.788454937e-23 9.35819444e-24)
(-0 1.26843461e-23 9.310849796e-24)
(-0 0 -0)
(-0 0 -0)
(-0 -0 -0)
(-0 -0 -0)
(-0 -0 -0)
(-0 -0 0)
(-0 -0 -0)
(-0 -0 -0)
(-0 0 0)
(-0 0 -0)
(-0 -1.364527348e-13 -2.598493675e-12)
(-0 1.503202267e-14 -9.075475241e-13)
(-0 1.78050937e-12 -4.756605661e-12)
(-0 1.775144817e-11 -2.034414063e-11)
(-0 2.166828456e-11 -1.483955774e-11)
(-0 6.68061491e-11 -2.971603087e-11)
(-0 3.544367912e-06 -8.740394358e-07)
(-0 7.501984752e-05 -43.27891699)
(-0 2.554435354e-06 -34.47136226)
(-0 3.022000172e-08 -5.951120666e-08)
(-0 9.528006639e-13 -1.796383063e-12)
(-0 2.064651948e-13 -3.574117175e-13)
(-0 4.859711586e-14 -7.580140863e-14)
(-0 1.314529594e-13 -1.837800265e-13)
(-0 1.253954618e-13 -1.573475786e-13)
(-0 3.742997054e-14 -4.234077028e-14)
(-0 3.505386245e-14 -3.594939657e-14)
(-0 5.466662311e-15 -5.113295415e-15)
(-0 1.230362025e-14 -1.055827513e-14)
(-0 2.531371577e-15 -2.004065521e-15)
(-0 3.128968712e-16 -2.297118821e-16)
(-0 1.0807893e-16 -7.39239708e-17)
(-0 4.404393362e-17 -2.818637622e-17)
(-0 3.434099155e-17 -2.064172594e-17)
(-0 1.171113121e-17 -6.634734475e-18)
(-0 2.604746809e-18 -1.395246729e-18)
(-0 1.870681208e-18 -9.501437279e-19)
(-0 9.518675784e-19 -4.596183917e-19)
(-0 2.814144502e-19 -1.294859612e-19)
(-0 7.240941413e-20 -3.181921789e-20)
(-0 1.70476942e-20 -7.161819869e-21)
(-0 4.557053439e-21 -1.836391932e-21)
(-0 1.275872984e-21 -4.946520314e-22)
(-0 3.61153807e-22 -1.231307369e-22)
(-0 6.977343674e-23 -2.011486465e-23)
(-0 1.25943862e-24 -9.445789648e-24)
(-0 -7.780282333e-38 1.881328196e-25)
(-0 1.724695535e-23 1.15707422e-23)
(-0 1.663679012e-23 7.902475305e-24)
(-0 1.006858897e-23 2.179797611e-24)
(-0 0 -0)
(-0 0 -0)
(-0 -0 -0)
(-0 -0 -0)
(-0 -0 -0)
(-0 -0 -0)
(-0 -0 0)
(-0 -0 0)
(-0 0 0)
(-0 0 0)
(-0 -2.593596455e-13 -2.652455456e-12)
(-0 -3.49175334e-13 -2.098017578e-12)
(-0 4.108043969e-14 -3.713456794e-13)
(-0 1.305103477e-11 -2.115715256e-11)
(-0 5.490892713e-11 -4.49485022e-11)
(-0 7.413121148e-11 -3.688856201e-11)
(-0 3.560201801e-06 -1.014478975e-06)
(-0 9.383596407e-05 -79.73448745)
(-0 3.424860033e-06 -68.13908417)
(-0 5.129651261e-08 -1.277924565e-07)
(-0 7.597553411e-13 -1.624120577e-12)
(-0 4.168323005e-13 -7.606934551e-13)
(-0 4.866265675e-13 -7.643218999e-13)
(-0 2.909449114e-13 -3.981126352e-13)
(-0 1.068575678e-13 -1.289500095e-13)
(-0 2.51901085e-14 -2.710771902e-14)
(-0 5.564241334e-14 -5.392256537e-14)
(-0 1.605349199e-14 -1.413037909e-14)
(-0 1.409772077e-14 -1.135531902e-14)
(-0 1.343889268e-14 -9.970600565e-15)
(-0 2.248744831e-15 -1.545614274e-15)
(-0 7.103333845e-16 -4.54598206e-16)
(-0 1.414515518e-16 -8.466975818e-17)
(-0 1.549967542e-16 -8.712333423e-17)
(-0 1.20053804e-17 -6.35962494e-18)
(-0 1.421251726e-17 -7.118114636e-18)
(-0 7.896780749e-18 -3.750072033e-18)
(-0 3.060801385e-18 -1.381847799e-18)
(-0 4.987367124e-19 -2.14572347e-19)
(-0 5.308366604e-20 -2.180930138e-20)
(-0 1.65091074e-20 -6.490497706e-21)
(-0 1.112167442e-20 -4.19074959e-21)
(-0 3.313623166e-21 -1.187810226e-21)
(-0 4.827051974e-22 -1.626297351e-22)
(-0 1.220855074e-22 -4.24645243e-23)
(-0 1.255667912e-23 -6.374929401e-24)
(-0 1.579517639e-23 7.30526908e-24)
(-0 2.691581845e-23 1.688355884e-23)
(-0 7.766306595e-24 7.766306595e-24)
(-0 3.072476633e-24 1.024158878e-24)
(-0 0 -0)
(-0 0 0)
(-0 0 -0)
(-0 -0 0)
(-0 -0 0)
(-0 -0 -0)
(-0 -0 0)
(-0 -0 -0)
(-0 0 -0)
(-0 0 0)
(-0 -1.019742585e-13 -9.848611652e-13)
(-0 -7.544837128e-13 -2.671581487e-12)
(-0 -9.734716614e-14 -5.91745747e-13)
(-0 1.901868743e-12 -5.797767078e-12)
(-0 6.229069189e-11 -6.471509618e-11)
(-0 1.002112664e-10 -5.670760104e-11)
(-0 2.011817427e-05 -6.574037535e-06)
(-0 0.0001375054992 -148.9018565)
(-0 4.8002566e-06 -134.1917013)
(-0 6.690025599e-08 -1.914980636e-07)
(-0 4.276870922e-13 -9.570223518e-13)
(-0 1.332859362e-12 -2.420772372e-12)
(-0 6.412433339e-13 -9.748180893e-13)
(-0 3.360573907e-13 -4.380400433e-13)
(-0 1.120730439e-13 -1.276333658e-13)
(-0 1.375432558e-13 -1.389082235e-13)
(-0 2.365346276e-14 -2.144020496e-14)
(-0 7.120683091e-14 -5.85058549e-14)
(-0 2.002632193e-14 -1.503907965e-14)
(-0 1.380473867e-14 -9.542180916e-15)
(-0 5.82972606e-15 -3.731600515e-15)
(-0 2.574022436e-15 -1.53380297e-15)
(-0 7.214900873e-16 -4.020666906e-16)
(-0 2.24682361e-17 -1.175745768e-17)
(-0 1.743870506e-16 -8.600144504e-17)
(-0 5.236612537e-17 -2.441706818e-17)
(-0 1.701377822e-17 -7.522443007e-18)
(-0 2.521421047e-18 -1.0598922e-18)
(-0 9.966119019e-19 -3.992419357e-19)
(-0 2.487414219e-19 -9.517035167e-20)
(-0 6.937807907e-20 -2.540109057e-20)
(-0 2.396215755e-20 -8.40770054e-21)
(-0 4.199947955e-21 -1.405504428e-21)
(-0 1.14574584e-21 -3.629449648e-22)
(-0 2.901779579e-22 -8.620175558e-23)
(-0 4.52237677e-23 1.306101594e-24)
(-0 2.256336098e-23 1.949649638e-23)
(-0 1.878593303e-23 8.393714759e-24)
(-0 2.956726191e-24 3.411607143e-25)
(-0 1.577758271e-24 8.3039909e-26)
(-0 0 -0)
(-0 0 0)
(-0 -0 -0)
(-0 -0 0)
(-0 -0 0)
(-0 -0 0)
(-0 -0 -0)
(-0 -0 0)
(-0 0 -0)
(-0 0 0)
(-0 -4.574618907e-14 -4.333211321e-13)
(-0 -5.874135269e-13 -1.788021898e-12)
(-0 -6.640524308e-13 -1.645047191e-12)
(-0 -9.032425313e-18 -8.322719735e-13)
(-0 7.179128736e-12 -1.072593397e-11)
(-0 1.211573215e-10 -8.117142797e-11)
(-0 0.0001491545872 -0.0001247154065)
(-0 0.0001729660457 -280.2889823)
(-0 6.96005821e-06 -260.5659703)
(-0 8.796341821e-08 -2.644141273e-07)
(-0 2.79067418e-12 -6.147371024e-12)
(-0 2.378214481e-12 -4.12928656e-12)
(-0 1.237035267e-12 -1.771857917e-12)
(-0 1.047838386e-12 -1.277006768e-12)
(-0 6.187958281e-13 -6.560802812e-13)
(-0 3.197063967e-13 -2.998764997e-13)
(-0 2.358409695e-13 -1.982751072e-13)
(-0 3.706754138e-14 -2.822691029e-14)
(-0 3.221739546e-14 -2.241482147e-14)
(-0 3.882805554e-14 -2.486076824e-14)
(-0 8.042934393e-15 -4.768581329e-15)
(-0 3.927323837e-15 -2.16765639e-15)
(-0 1.7191348e-15 -8.874413538e-16)
(-0 1.281408166e-15 -6.211948719e-16)
(-0 4.413326019e-16 -2.01646543e-16)
(-0 2.364581599e-17 -1.0215713e-17)
(-0 1.442189003e-17 -5.908655779e-18)
(-0 1.198714858e-17 -4.669547886e-18)
(-0 3.5786018e-18 -1.328613796e-18)
(-0 6.496753734e-19 -2.30385534e-19)
(-0 1.720169167e-19 -5.838010308e-20)
(-0 4.002622578e-20 -1.302656636e-20)
(-0 9.401951496e-21 -2.931758587e-21)
(-0 2.750999137e-21 -8.213380759e-22)
(-0 6.24735258e-22 -1.675372895e-22)
(-0 8.113134969e-23 -6.416363332e-24)
(-0 2.17228438e-23 1.486299839e-23)
(-0 2.984511984e-24 1.297613906e-24)
(-0 9.155597166e-25 -1.678526147e-24)
(-0 0 -0)
(-0 0 0)
(-0 0 0)
(-0 -0 0)
(-0 -0 -0)
(-0 -0 0)
(-0 -0 0)
(-0 -0 0)
(-0 -0 0)
(-0 0 0)
(-0 0 0)
(-0 -7.493920389e-16 -7.841580691e-15)
(-0 -2.8034461e-13 -8.515811885e-13)
(-0 -1.008548386e-12 -1.786572771e-12)
(-0 -3.642639812e-13 -9.974046848e-13)
(-0 6.588588478e-13 -2.058528022e-12)
(-0 3.560499186e-12 -3.057861772e-12)
(-0 0.0001545186083 -0.0001323150786)
(-0 9.653110516e-05 -525.3452111)
(-0 1.100390669e-05 -494.668286)
(-0 1.247970142e-07 -3.651101626e-07)
(-0 6.274033495e-12 -1.30084505e-11)
(-0 1.047228886e-12 -1.689798007e-12)
(-0 2.279795754e-12 -3.018157788e-12)
(-0 2.258980538e-12 -2.538219818e-12)
(-0 9.824667779e-13 -9.592927325e-13)
(-0 1.098826323e-12 -9.487190549e-13)
(-0 8.190786685e-14 -6.337717764e-14)
(-0 1.888080933e-13 -1.323320592e-13)
(-0 7.946786761e-14 -5.089387771e-14)
(-0 1.021967265e-14 -6.024292949e-15)
(-0 2.632026488e-14 -1.436949726e-14)
(-0 7.767864418e-15 -3.948641076e-15)
(-0 8.345628481e-15 -3.968375146e-15)
(-0 2.637943574e-15 -1.178137572e-15)
(-0 4.683899908e-16 -1.971890313e-16)
(-0 2.601618636e-16 -1.035768539e-16)
(-0 8.864763266e-17 -3.347239153e-17)
(-0 2.69333185e-17 -9.670415425e-18)
(-0 5.510426882e-18 -1.88585141e-18)
(-0 1.146248441e-18 -3.747162124e-19)
(-0 2.215017691e-19 -6.931290688e-20)
(-0 4.972083711e-20 -1.492065331e-20)
(-0 1.776104269e-20 -5.11854554e-21)
(-0 2.286912087e-21 -6.343674372e-22)
(-0 6.537732821e-22 -1.710492661e-22)
(-0 8.922848901e-23 -1.757784493e-23)
(-0 1.175678506e-23 -2.827581217e-24)
(-0 -4.558569625e-25 -1.953672696e-24)
(-0 0 -0)
(-0 0 -0)
(-0 0 -0)
(-0 0 0)
(-0 -0 0)
(-0 -0 -0)
(-0 -0 0)
(-0 -0 0)
(-0 -0 0)
(-0 -0 -0)
(-0 0 0)
(-0 0 0)
(-0 -4.148375108e-24 -4.531090651e-23)
(-0 -5.452129729e-14 -1.688706546e-13)
(-0 -7.083312329e-13 -1.151449082e-12)
(-0 -4.095427183e-13 -5.859503772e-13)
(-0 -7.203699058e-14 -6.821186615e-13)
(-0 6.835416866e-13 -8.78398565e-13)
(-0 8.97944811e-06 -4.584501308e-06)
(-0 8.709005788e-05 -967.0461647)
(-0 1.86537769e-05 -910.891903)
(-0 7.197926528e-08 -1.931187852e-07)
(-0 4.435603213e-12 -8.377234072e-12)
(-0 4.287135755e-12 -6.295309767e-12)
(-0 3.516686921e-12 -4.238969137e-12)
(-0 2.878228808e-12 -2.947011069e-12)
(-0 1.353199993e-12 -1.20501056e-12)
(-0 3.354923823e-13 -2.643645878e-13)
(-0 4.455867589e-13 -3.148642286e-13)
(-0 4.527341867e-13 -2.899359867e-13)
(-0 1.069124496e-13 -6.259098547e-14)
(-0 1.401475576e-13 -7.554912783e-14)
(-0 9.605498413e-14 -4.79718417e-14)
(-0 3.522389678e-14 -1.638393187e-14)
(-0 5.319353883e-15 -2.314991841e-15)
(-0 5.544025769e-15 -2.2666286e-15)
(-0 2.264858695e-15 -8.730044654e-16)
(-0 4.125222016e-16 -1.503945199e-16)
(-0 6.534001319e-17 -2.259547112e-17)
(-0 1.207618769e-17 -3.971529494e-18)
(-0 1.806651861e-18 -5.663853635e-19)
(-0 2.053568592e-19 -6.150236743e-20)
(-0 4.294628604e-20 -1.231170451e-20)
(-0 4.219743483e-20 -1.160003694e-20)
(-0 1.889601588e-20 -4.986745896e-21)
(-0 2.989038565e-21 -7.569006288e-22)
(-0 1.120775825e-21 -2.771037066e-22)
(-0 1.449184123e-22 -3.895135958e-23)
(-0 4.844288937e-23 -2.216877988e-23)
(-0 2.987040998e-24 2.987040998e-25)
(-0 1.172933611e-24 1.353384936e-25)
(-0 0 0)
(-0 0 -0)
(-0 0 -0)
(-0 -0 -0)
(-0 -0 -0)
(-0 -0 0)
(-0 -0 0)
(-0 -0 0)
(-0 -0 -0)
(-0 0 -0)
(-0 0 -0)
(-0 -6.878420245e-24 -7.491302341e-23)
(-0 -2.189735561e-19 -6.802972597e-19)
(-0 -4.546968918e-13 -7.041564358e-13)
(-0 -9.892147395e-13 -1.060870311e-12)
(-0 -3.424128519e-13 -5.733689542e-13)
(-0 3.595820868e-13 -1.09377159e-12)
(-0 5.000116305e-06 -3.374677001e-06)
(-0 0.0002189393699 -1721.078465)
(-0 3.292141243e-05 -1613.775258)
(-0 6.449655425e-08 -1.52007318e-07)
(-0 7.29649375e-12 -1.224806792e-11)
(-0 6.492779634e-12 -8.531972192e-12)
(-0 2.264192703e-12 -2.453008877e-12)
(-0 4.582991868e-12 -4.229979432e-12)
(-0 1.258779324e-12 -1.012521314e-12)
(-0 9.518454045e-13 -6.785150012e-13)
(-0 2.003471782e-12 -1.282118135e-12)
(-0 3.451676262e-13 -2.003592777e-13)
(-0 6.923425974e-13 -3.676295374e-13)
(-0 4.14406211e-13 -2.027224368e-13)
(-0 1.689507942e-14 -7.660195695e-15)
(-0 6.263353017e-14 -2.645748862e-14)
(-0 1.706323116e-14 -6.745819676e-15)
(-0 2.083452935e-15 -7.739683827e-16)
(-0 1.137034679e-15 -3.983078267e-16)
(-0 4.919920356e-16 -1.630365634e-16)
(-0 1.603782507e-16 -5.041873742e-17)
(-0 5.503190616e-17 -1.64550839e-17)
(-0 1.587385765e-17 -4.525052293e-18)
(-0 3.977937434e-18 -1.083391801e-18)
(-0 7.769528311e-19 -2.025602281e-19)
(-0 2.859209935e-19 -7.148459919e-20)
(-0 5.796605e-20 -1.392664217e-20)
(-0 1.365937875e-20 -3.155926728e-21)
(-0 3.26009884e-21 -7.37088994e-22)
(-0 6.686590958e-22 -1.682897051e-22)
(-0 1.403198091e-22 -4.560939363e-23)
(-0 3.14258197e-23 -8.094529317e-24)
(-0 3.136393048e-24 9.259827094e-24)
(-0 1.245598635e-25 7.957991279e-26)
(-0 0 -0)
(-0 0 -0)
(-0 -0 -0)
(-0 -0 -0)
(-0 -0 0)
(-0 -0 0)
(-0 -0 0)
(-0 -0 -0)
(-0 0 -0)
(-0 0 -0)
(-0 -6.918839584e-20 -7.298081904e-19)
(-0 -3.28015528e-19 -9.852682222e-19)
(-0 -6.681681219e-14 -1.006014735e-13)
(-0 -1.02244399e-12 -9.754901768e-13)
(-0 -6.259273186e-13 -5.676942829e-13)
(-0 -2.525940183e-13 -1.156565213e-12)
(-0 8.357455021e-07 -8.407717251e-07)
(-0 0.0002284468373 -2915.156036)
(-0 6.0856321e-05 -2727.691273)
(-0 2.120193188e-07 -4.259079329e-07)
(-0 2.101402017e-11 -3.075420926e-11)
(-0 1.165497672e-11 -1.350693378e-11)
(-0 9.532971255e-12 -9.169458749e-12)
(-0 1.337975399e-11 -1.101033543e-11)
(-0 4.211752803e-12 -3.029031716e-12)
(-0 9.114277087e-12 -5.820383113e-12)
(-0 3.34703375e-12 -1.921549135e-12)
(-0 1.941016251e-12 -1.011825372e-12)
(-0 2.545840125e-13 -1.214948348e-13)
(-0 6.226537335e-13 -2.739189293e-13)
(-0 6.008071953e-14 -2.450873354e-14)
(-0 4.703613822e-14 -1.78831543e-14)
(-0 2.612173352e-14 -9.297784648e-15)
(-0 8.508308569e-15 -2.846401197e-15)
(-0 3.546777559e-15 -1.119136704e-15)
(-0 1.181904896e-15 -3.528495499e-16)
(-0 2.319185794e-16 -6.569412013e-17)
(-0 9.717960368e-17 -2.618542818e-17)
(-0 2.4990812e-17 -6.420479847e-18)
(-0 6.870555666e-18 -1.686568375e-18)
(-0 1.441511286e-18 -3.387617784e-19)
(-0 3.591270493e-19 -8.09406367e-20)
(-0 7.828526127e-20 -1.695528338e-20)
(-0 3.00981091e-20 -6.281792615e-21)
(-0 6.305571591e-21 -1.280047108e-21)
(-0 1.04183069e-21 -2.264164343e-22)
(-0 2.256839116e-22 -5.664487068e-23)
(-0 6.870911312e-23 -2.682479074e-23)
(-0 1.456090445e-23 -6.166971295e-24)
(-0 3.840595791e-25 -5.760893687e-25)
(-0 0 -0)
(-0 0 -0)
(-0 -0 -0)
(-0 -0 0)
(-0 -0 -0)
(-0 -0 -0)
(-0 -0 -0)
(-0 -0 -0)
(-0 0 -0)
(-0 0 -0)
(-0 -7.116022577e-20 -7.036699321e-19)
(-0 -6.396917256e-19 -1.789539847e-18)
(-0 -5.74909797e-19 -8.126643721e-19)
(-0 -3.721955118e-13 -3.329387087e-13)
(-0 -1.024252568e-12 -7.105703819e-13)
(-0 -1.074676679e-12 -1.181275512e-12)
(-0 5.922057166e-07 -1.289485162e-06)
(-0 0.0002069753472 -4634.283983)
(-0 8.62050257e-05 -4361.599164)
(-0 8.676780396e-07 -1.455007562e-06)
(-0 3.279039655e-12 -4.116615563e-12)
(-0 1.948030825e-11 -1.963461513e-11)
(-0 1.564903743e-11 -1.319537597e-11)
(-0 4.392202325e-12 -3.184135895e-12)
(-0 1.789545351e-11 -1.137483375e-11)
(-0 1.537148318e-11 -8.694968226e-12)
(-0 4.072521279e-12 -2.074235182e-12)
(-0 4.632185997e-12 -2.144670889e-12)
(-0 1.047912175e-12 -4.445482063e-13)
(-0 9.035751723e-13 -3.535802639e-13)
(-0 4.528822165e-14 -1.644134503e-14)
(-0 3.730647472e-14 -1.262801586e-14)
(-0 1.252951919e-14 -3.971808212e-15)
(-0 7.812906912e-15 -2.328380662e-15)
(-0 4.863805111e-15 -1.367432871e-15)
(-0 5.619615466e-16 -1.495102646e-16)
(-0 2.35144533e-16 -5.936735279e-17)
(-0 4.394738603e-17 -1.055587234e-17)
(-0 9.125375936e-18 -2.090073998e-18)
(-0 3.362168853e-18 -7.358616097e-19)
(-0 7.216473657e-19 -1.512162381e-19)
(-0 4.657713277e-19 -9.36089105e-20)
(-0 1.76039718e-19 -3.398758802e-20)
(-0 4.196621474e-20 -7.812662911e-21)
(-0 7.471968939e-21 -1.353502353e-21)
(-0 1.613949652e-21 -2.899544823e-22)
(-0 2.739058527e-22 -4.814751318e-23)
(-0 9.808808053e-23 -2.198525943e-23)
(-0 2.831633554e-23 -2.061429227e-23)
(-0 7.438360975e-24 -4.508097561e-24)
(-0 0 -0)
(-0 0 -0)
(-0 -0 -0)
(-0 -0 0)
(-0 -0 -0)
(-0 -0 -0)
(-0 -0 -0)
(-0 -0 -0)
(-0 0 -0)
(-0 0 -0)
(-0 -1.302231583e-20 -1.15416614e-19)
(-0 -4.07642602e-19 -1.022023093e-18)
(-0 -1.53929923e-18 -1.961176865e-18)
(-0 -6.703902516e-14 -5.606280192e-14)
(-0 -7.334819595e-13 -4.702076568e-13)
(-0 -1.038545793e-12 -6.6785384e-13)
(-0 -3.329601302e-07 -1.744477197e-06)
(-0 0.00011651911 -6841.274907)
(-0 -3.882598986e-05 -6542.241623)
(-0 2.134872911e-05 -2.988967775e-05)
(-0 5.590858599e-11 -5.929976492e-11)
(-0 1.574854966e-11 -1.360477519e-11)
(-0 3.222445281e-11 -2.348337549e-11)
(-0 1.022301285e-11 -6.438409563e-12)
(-0 3.12031795e-11 -1.728875819e-11)
(-0 4.768881799e-12 -2.356857457e-12)
(-0 6.605200165e-12 -2.944077955e-12)
(-0 4.341015735e-12 -1.760935016e-12)
(-0 2.142627726e-12 -7.970659972e-13)
(-0 8.737649848e-13 -3.000242306e-13)
(-0 4.550804521e-13 -1.450431772e-13)
(-0 1.232401243e-13 -3.663800355e-14)
(-0 2.941487979e-14 -8.191933729e-15)
(-0 5.944470747e-15 -1.556791447e-15)
(-0 2.827834992e-15 -6.987956025e-16)
(-0 5.043400243e-16 -1.17958401e-16)
(-0 3.147958458e-16 -6.987879103e-17)
(-0 2.295400728e-16 -4.848152719e-17)
(-0 6.641730999e-17 -1.337809375e-17)
(-0 1.772354307e-17 -3.411669781e-18)
(-0 3.284482515e-18 -6.053687077e-19)
(-0 1.051609339e-18 -1.859151512e-19)
(-0 1.300263098e-19 -2.208513419e-20)
(-0 2.866170393e-20 -4.688718302e-21)
(-0 9.407045289e-21 -1.485172846e-21)
(-0 2.222286948e-21 -3.345802007e-22)
(-0 6.667511575e-22 -1.003776834e-22)
(-0 1.152910312e-22 -1.668040452e-23)
(-0 2.217735063e-23 4.726320626e-24)
(-0 1.043631175e-23 -3.860005715e-24)
(-0 2.421997346e-24 3.113996587e-25)
(-0 0 -0)
(-0 0 -0)
(-0 -0 -0)
(-0 -0 -0)
(-0 -0 -0)
(-0 -0 -0)
(-0 -0 0)
(-0 0 -0)
(-0 0 -0)
(-0 -1.428175768e-43 -1.081709404e-42)
(-0 -5.839516302e-20 -1.254490932e-19)
(-0 -7.167745142e-19 -7.853347564e-19)
(-0 -9.17855351e-21 -6.700857673e-21)
(-0 -1.53452322e-13 -8.905097485e-14)
(-0 -1.166521814e-16 -6.04114306e-17)
(-0 -1.432147757e-06 -1.416636479e-06)
(-0 -7.53321102e-05 -9312.002823)
(-0 -0.0002798832846 -9124.581418)
(-0 0.0001616737364 -0.0002253576488)
(-0 9.674391398e-12 -8.527546655e-12)
(-0 7.005337833e-11 -5.099305695e-11)
(-0 1.138085763e-10 -7.045572728e-11)
(-0 2.1065325e-11 -1.132783375e-11)
(-0 3.394759588e-11 -1.611397032e-11)
(-0 2.615960991e-11 -1.110098467e-11)
(-0 2.293804141e-12 -8.792716707e-13)