/*--------------------------------*- C++ -*----------------------------------*\
  =========                 |
  \\      /  F ield         | OpenFOAM: The Open Source CFD Toolbox
   \\    /   O peration     | Website:  https://openfoam.org
    \\  /    A nd           | Version:  6
     \\/     M anipulation  |
\*---------------------------------------------------------------------------*/
FoamFile
{
    version     2.0;
    format      ascii;
    class       volScalarField;
    location    "0.09";
    object      Num_divU;
}
// * * * * * * * * * * * * * * * * * * * * * * * * * * * * * * * * * * * * * //

dimensions      [0 0 -1 0 0 0 0];

internalField   nonuniform List<scalar> 
2500
(
4.296221695e-07
-2.519553085e-07
-4.017375204e-07
1.369153199e-07
1.781171862e-07
-1.439548164e-07
-8.655670777e-08
4.394933824e-07
6.600187828e-07
9.438872703e-22
-1.731586374e-17
-3.896230071e-17
-5.929944362e-17
-7.908889362e-17
-9.86343151e-17
-1.179833427e-16
-1.371185483e-16
-1.560089156e-16
-1.746220308e-16
-1.929266682e-16
-2.108925545e-16
-2.284903262e-16
-2.456920266e-16
-2.624716072e-16
-2.788044158e-16
-2.946670545e-16
-3.100374408e-16
-3.248951864e-16
-3.392215735e-16
-3.529994113e-16
-3.662129711e-16
-3.788478801e-16
-3.908911996e-16
-4.023312803e-16
-4.131579071e-16
-4.233619522e-16
-4.329355352e-16
-4.418717683e-16
-4.501647867e-16
-4.578096244e-16
-4.648022003e-16
-4.711392093e-16
-4.768180462e-16
-4.818367684e-16
-4.861940491e-16
-4.898891161e-16
-4.929217837e-16
-4.952924426e-16
-4.970013554e-16
-4.980457256e-16
-5.844656009e-08
3.208900132e-07
1.677347655e-08
7.182147318e-08
2.847739692e-07
2.377651399e-07
-1.317614734e-07
-1.099562803e-06
4.333120172e-08
-3.461173187e-17
-7.250393698e-17
-1.098492371e-16
-1.454155883e-16
-1.803586299e-16
-2.149119904e-16
-2.490696386e-16
-2.827821492e-16
-3.159935801e-16
-3.486475765e-16
-3.806898123e-16
-4.120689275e-16
-4.427358985e-16
-4.726439587e-16
-5.017488469e-16
-5.300088752e-16
-5.573853885e-16
-5.838423277e-16
-6.093463944e-16
-6.338670327e-16
-6.573762264e-16
-6.798485659e-16
-7.012611614e-16
-7.21593404e-16
-7.408271622e-16
-7.589463176e-16
-7.759368789e-16
-7.917866501e-16
-8.064852748e-16
-8.200239779e-16
-8.323955764e-16
-8.435942184e-16
-8.536153663e-16
-8.624557296e-16
-8.701132191e-16
-8.765870749e-16
-8.818785256e-16
-8.859921592e-16
-8.889408847e-16
-8.907614171e-16
-3.932125416e-16
-1.836690214e-08
1.795016855e-07
-6.005634547e-08
4.205882543e-08
2.810580212e-07
4.598321381e-07
7.378244499e-07
4.356060712e-07
-1.539343178e-07
-2.833634429e-17
-6.040072376e-17
-9.266917224e-17
-1.235732997e-16
-1.540184424e-16
-1.84151383e-16
-2.139493606e-16
-2.433647964e-16
-2.72348228e-16
-3.008504524e-16
-3.288242892e-16
-3.562247055e-16
-3.830086422e-16
-4.091349206e-16
-4.345648585e-16
-4.592621074e-16
-4.831928172e-16
-5.063253086e-16
-5.286302433e-16
-5.500807406e-16
-5.706521899e-16
-5.903223314e-16
-6.090710141e-16
-6.268802071e-16
-6.437338176e-16
-6.596177526e-16
-6.745195532e-16
-6.884285173e-16
-7.013354463e-16
-7.13232633e-16
-7.241136226e-16
-7.339731792e-16
-7.428072071e-16
-7.506124893e-16
-7.573868286e-16
-7.63128775e-16
-7.678375114e-16
-7.715123776e-16
-7.741500705e-16
-7.757327825e-16
-3.830779866e-16
-2.14492804e-07
1.545191766e-08
-1.342894637e-07
1.254208008e-08
4.654192606e-08
-2.070342888e-08
1.896412826e-07
3.419674807e-07
-1.639590136e-07
-2.788815526e-17
-5.932296254e-17
-9.10620901e-17
-1.215046322e-16
-1.515170282e-16
-1.812288729e-16
-2.106122117e-16
-2.396183137e-16
-2.681987632e-16
-2.963050277e-16
-3.238905322e-16
-3.509108416e-16
-3.773235574e-16
-4.030882672e-16
-4.281667174e-16
-4.525230036e-16
-4.761236337e-16
-4.989374454e-16
-5.209355394e-16
-5.420913286e-16
-5.623806914e-16
-5.817815356e-16
-6.002740964e-16
-6.178405337e-16
-6.344649964e-16
-6.501335246e-16
-6.648339237e-16
-6.785555944e-16
-6.91289382e-16
-7.030277213e-16
-7.137642027e-16
-7.234935616e-16
-7.322116443e-16
-7.399151089e-16
-7.466013965e-16
-7.522684486e-16
-7.569144701e-16
-7.605370817e-16
-7.631318895e-16
-7.64690177e-16
-3.821818221e-16
-1.439893512e-07
1.968320384e-07
-2.120839622e-07
3.880653508e-08
9.864592945e-08
-1.677101799e-08
-6.768037726e-09
1.721859251e-07
1.123356416e-08
-2.787071259e-17
-5.925025774e-17
-9.095093853e-17
-1.213565609e-16
-1.51334717e-16
-1.810142583e-16
-2.103664792e-16
-2.39341437e-16
-2.678908224e-16
-2.959663276e-16
-3.23521449e-16
-3.505117935e-16
-3.76895013e-16
-4.026307191e-16
-4.276807789e-16
-4.520092993e-16
-4.755828299e-16
-4.983702564e-16
-5.203427312e-16
-5.414737834e-16
-5.61739235e-16
-5.811171162e-16
-5.995876096e-16
-6.171329748e-16
-6.337373537e-16
-6.493868821e-16
-6.640692345e-16
-6.777739118e-16
-6.904918806e-16
-7.022153889e-16
-7.129380024e-16
-7.226545317e-16
-7.313605459e-16
-7.390526359e-16
-7.457279891e-16
-7.513842016e-16
-7.560189812e-16
-7.59629808e-16
-7.622132246e-16
-7.637651035e-16
-3.821591019e-16
-1.462998505e-07
4.058872328e-07
-1.187270715e-07
-2.616353896e-08
1.641218244e-08
-1.304708677e-07
-1.631694179e-07
-2.419402067e-07
1.806374077e-07
-2.788718873e-17
-5.925856326e-17
-9.09708024e-17
-1.213840658e-16
-1.513675807e-16
-1.810524828e-16
-2.104098177e-16
-2.393894644e-16
-2.679427108e-16
-2.960218065e-16
-3.235802592e-16
-3.505736138e-16
-3.769595516e-16
-4.026976139e-16
-4.277497618e-16
-4.520800569e-16
-4.756550975e-16
-4.984437458e-16
-5.204171815e-16
-5.415489832e-16
-5.618149368e-16
-5.811931019e-16
-5.996636573e-16
-6.172088443e-16
-6.338129029e-16
-6.494618631e-16
-6.64143525e-16
-6.778473631e-16
-6.905642117e-16
-7.022864347e-16
-7.130075374e-16
-7.227221812e-16
-7.314259622e-16
-7.391152616e-16
-7.457871802e-16
-7.514391001e-16
-7.560687262e-16
-7.596737012e-16
-7.62251477e-16
-7.63799649e-16
-3.822204294e-16
-3.079687168e-07
3.379262575e-07
1.466416599e-07
4.252884783e-08
5.788711026e-08
-2.051431815e-07
-2.184331248e-07
-4.832368423e-07
1.504700851e-07
-2.790347249e-17
-5.927415396e-17
-9.099766441e-17
-1.214230315e-16
-1.514161747e-16
-1.811108458e-16
-2.104773325e-16
-2.394655093e-16
-2.680261886e-16
-2.961120309e-16
-3.236768865e-16
-3.506763257e-16
-3.770679603e-16
-4.028113907e-16
-4.278684926e-16
-4.522033968e-16
-4.757826678e-16
-4.98575222e-16
-5.205522374e-16
-5.416871737e-16
-5.619559947e-16
-5.81336686e-16
-5.998094242e-16
-6.173564633e-16
-6.339620542e-16
-6.496122635e-16
-6.642948961e-16
-6.779993771e-16
-6.90716575e-16
-7.024388398e-16
-7.131595771e-16
-7.22873442e-16
-7.315759805e-16
-7.392635233e-16
-7.459330167e-16
-7.515819163e-16
-7.562079596e-16
-7.598090212e-16
-7.623831791e-16
-7.639286941e-16
-3.822907462e-16
-4.150332539e-07
1.651695865e-08
2.512081346e-07
1.556987362e-07
1.929341795e-07
-6.885313555e-08
-2.083165336e-07
-2.321298973e-07
-9.153059833e-09
-2.791311867e-17
-5.929468657e-17
-9.102439299e-17
-1.214607882e-16
-1.514621307e-16
-1.811666194e-16
-2.105431341e-16
-2.395409037e-16
-2.681097305e-16
-2.962028686e-16
-3.237744139e-16
-3.507801655e-16
-3.771777316e-16
-4.029267632e-16
-4.279891152e-16
-4.523289198e-16
-4.75912723e-16
-4.98709439e-16
-5.206902502e-16
-5.418286946e-16
-5.621006196e-16
-5.814840317e-16
-5.999591913e-16
-6.175083342e-16
-6.34115696e-16
-6.497673502e-16
-6.64451132e-16
-6.781564717e-16
-6.90874196e-16
-7.025966283e-16
-7.133172109e-16
-7.230305268e-16
-7.317320668e-16
-7.39418133e-16
-7.460857434e-16
-7.51732269e-16
-7.563555964e-16
-7.599538459e-16
-7.625254009e-16
-7.640689796e-16
-3.82362123e-16
-2.364667737e-07
-1.966726683e-07
1.051166417e-07
1.331801226e-07
2.759551727e-07
1.398971968e-07
-1.674601416e-07
1.996156218e-07
-6.63334332e-08
-2.791719792e-17
-5.931560615e-17
-9.105081864e-17
-1.214991583e-16
-1.515064571e-16
-1.812184362e-16
-2.106043835e-16
-2.396121062e-16
-2.681897124e-16
-2.962904542e-16
-3.238688822e-16
-3.50880932e-16
-3.772844134e-16
-4.030390111e-16
-4.281066059e-16
-4.524513157e-16
-4.760397027e-16
-4.988406055e-16
-5.208253054e-16
-5.419672067e-16
-5.622422381e-16
-5.816284478e-16
-6.001060582e-16
-6.176573496e-16
-6.342665512e-16
-6.499197486e-16
-6.646047457e-16
-6.783109728e-16
-6.910292974e-16
-7.027520033e-16
-7.134725225e-16
-7.231853924e-16
-7.31886162e-16
-7.395710573e-16
-7.462370909e-16
-7.51881781e-16
-7.565030399e-16
-7.600991708e-16
-7.626687951e-16
-7.642108887e-16
-3.82433014e-16
1.034815354e-07
-5.142885168e-08
-1.17783718e-07
3.964180368e-08
2.638329327e-07
2.179174237e-07
-5.940287278e-08
3.061108576e-07
4.203253664e-08
-2.79212329e-17
-5.93313026e-17
-9.107293928e-17
-1.2153802e-16
-1.515519073e-16
-1.812686062e-16
-2.10661869e-16
-2.396786634e-16
-2.682652037e-16
-2.963738753e-16
-3.239593174e-16
-3.509777134e-16
-3.773870525e-16
-4.03147198e-16
-4.282199377e-16
-4.52569472e-16
-4.761623797e-16
-4.989675067e-16
-5.209559702e-16
-5.421013639e-16
-5.62379506e-16
-5.817684927e-16
-6.002485973e-16
-6.178020316e-16
-6.344130953e-16
-6.500678624e-16
-6.647541079e-16
-6.784613107e-16
-6.91180303e-16
-7.029033398e-16
-7.136239131e-16
-7.233364894e-16
-7.320366171e-16
-7.397205841e-16
-7.463854121e-16
-7.520286504e-16
-7.566482792e-16
-7.602428013e-16
-7.628109194e-16
-7.643517765e-16
-3.825024978e-16
3.177125712e-07
3.181980858e-07
-1.16939764e-07
1.220330367e-08
2.243497639e-07
2.276432295e-07
1.113064342e-07
1.070080648e-07
1.399491319e-07
-2.792841549e-17
-5.934450554e-17
-9.108821445e-17
-1.21573183e-16
-1.51598637e-16
-1.813192982e-16
-2.107175255e-16
-2.397412922e-16
-2.683360329e-16
-2.964525601e-16
-3.240450801e-16
-3.510698219e-16
-3.774850335e-16
-4.032505912e-16
-4.283284205e-16
-4.526826538e-16
-4.76279986e-16
-4.990892164e-16
-5.210814375e-16
-5.422302287e-16
-5.625114613e-16
-5.819031879e-16
-6.00385723e-16
-6.179413667e-16
-6.345543048e-16
-6.502106356e-16
-6.648981996e-16
-6.786063887e-16
-6.913260932e-16
-7.03049551e-16
-7.137702396e-16
-7.234826599e-16
-7.321823526e-16
-7.398656051e-16
-7.465294856e-16
-7.521715526e-16
-7.567899614e-16
-7.603831652e-16
-7.629500783e-16
-7.644898408e-16
-3.82569697e-16
1.561812122e-07
5.292015148e-07
1.434620925e-07
4.013415996e-08
2.808642139e-07
2.628397645e-07
2.859033982e-07
5.690113395e-08
9.071702721e-08
-2.793530009e-17
-5.936079279e-17
-9.109994363e-17
-1.215986993e-16
-1.516419457e-16
-1.813697997e-16
-2.107723153e-16
-2.398011006e-16
-2.684025597e-16
-2.965263831e-16
-3.241257016e-16
-3.5115667e-16
-3.775776585e-16
-4.033485201e-16
-4.284312786e-16
-4.52790106e-16
-4.763916986e-16
-4.992048513e-16
-5.212007232e-16
-5.423528539e-16
-5.626370566e-16
-5.820315116e-16
-6.005164594e-16
-6.180742187e-16
-6.346890471e-16
-6.503469592e-16
-6.650358268e-16
-6.78745038e-16
-6.914654818e-16
-7.031894389e-16
-7.139103623e-16
-7.236227052e-16
-7.323221216e-16
-7.400047992e-16
-7.466679466e-16
-7.523091478e-16
-7.569265049e-16
-7.605186793e-16
-7.630845438e-16
-7.646234271e-16
-3.826338037e-16
-1.694039241e-07
4.184245221e-07
3.707929234e-07
1.754167e-07
3.255183645e-07
2.733747368e-07
3.203284495e-07
3.576052978e-07
-1.187048683e-07
-2.793670886e-17
-5.938286195e-17
-9.112032151e-17
-1.216155906e-16
-1.516768956e-16
-1.814165521e-16
-2.108250132e-16
-2.39858186e-16
-2.684650836e-16
-2.965952575e-16
-3.242009197e-16
-3.512378142e-16
-3.776643027e-16
-4.034403109e-16
-4.285278047e-16
-4.528910422e-16
-4.764966578e-16
-4.993135473e-16
-5.213129166e-16
-5.42468214e-16
-5.627553065e-16
-5.821523741e-16
-6.006396598e-16
-6.181995243e-16
-6.348161716e-16
-6.504756498e-16
-6.651658349e-16
-6.788761065e-16
-6.91597323e-16
-7.03321807e-16
-7.140429643e-16
-7.237553917e-16
-7.324545857e-16
-7.40136936e-16
-7.46799484e-16
-7.524399418e-16
-7.570564857e-16
-7.60647781e-16
-7.63212787e-16
-7.647507645e-16
-3.826939982e-16
-3.182196214e-07
1.71485122e-07
4.051832102e-07
2.921759547e-07
3.195216727e-07
2.537580567e-07
1.451558597e-07
8.941455705e-07
-3.309097842e-07
-2.793239633e-17
-5.940267962e-17
-9.115791079e-17
-1.216346962e-16
-1.517051926e-16
-1.81457288e-16
-2.108734189e-16
-2.399115656e-16
-2.685233691e-16
-2.966590113e-16
-3.242703304e-16
-3.513126971e-16
-3.777443359e-16
-4.035251945e-16
-4.28617173e-16
-4.529845608e-16
-4.765939867e-16
-4.994144248e-16
-5.214169901e-16
-5.425752945e-16
-5.62865149e-16
-5.82264707e-16
-6.007542445e-16
-6.183160791e-16
-6.349345202e-16
-6.505955203e-16
-6.652869599e-16
-6.789982864e-16
-6.917202848e-16
-7.034453105e-16
-7.14166813e-16
-7.238793363e-16
-7.325784304e-16
-7.402604684e-16
-7.469226004e-16
-7.525624758e-16
-7.571783485e-16
-7.607688885e-16
-7.63333098e-16
-7.648703188e-16
-3.827494598e-16
-2.279557659e-07
5.594887674e-08
3.161141136e-07
2.748697739e-07
3.167730434e-07
3.457489964e-07
-1.264656219e-07
1.148650755e-06
-2.790824804e-07
-2.793267577e-17
-5.940468742e-17
-9.119794171e-17
-1.216600135e-16
-1.517310652e-16
-1.814922012e-16
-2.109160315e-16
-2.399598855e-16
-2.68576596e-16
-2.967171584e-16
-3.243335469e-16
-3.513809177e-16
-3.778172516e-16
-4.036024947e-16
-4.28698637e-16
-4.53069865e-16
-4.766828134e-16
-4.995064796e-16
-5.215120557e-16
-5.426731196e-16
-5.629654659e-16
-5.823673907e-16
-6.008590103e-16
-6.184227814e-16
-6.350428456e-16
-6.507053058e-16
-6.653979921e-16
-6.791102836e-16
-6.918330814e-16
-7.035586851e-16
-7.142804822e-16
-7.239931744e-16
-7.326922447e-16
-7.403741004e-16
-7.470358726e-16
-7.52675249e-16
-7.572905495e-16
-7.608804393e-16
-7.634439254e-16
-7.649804082e-16
-3.827993906e-16
-5.771340234e-08
8.880696072e-08
2.182056387e-07
1.671060393e-07
3.376061501e-07
5.169087492e-07
-2.176356308e-07
6.636993936e-07
-7.490010086e-08
-2.794854592e-17
-5.94012921e-17
-9.122771041e-17
-1.216907744e-16
-1.517589995e-16
-1.815239633e-16
-2.109533032e-16
-2.400025464e-16
-2.686240073e-16
-2.967690771e-16
-3.243899818e-16
-3.514418105e-16
-3.778823677e-16
-4.036715861e-16
-4.287713694e-16
-4.531460603e-16
-4.767622025e-16
-4.995887799e-16
-5.215970697e-16
-5.427606034e-16
-5.630553065e-16
-5.824592818e-16
-6.009528695e-16
-6.185183566e-16
-6.351399718e-16
-6.50803808e-16
-6.654976081e-16
-6.792108332e-16
-6.919344103e-16
-7.036605069e-16
-7.143826976e-16
-7.24095545e-16
-7.327946137e-16
-7.404763024e-16
-7.471377959e-16
-7.527767891e-16
-7.573915725e-16
-7.609808379e-16
-7.635436698e-16
-7.650794839e-16
-3.828430725e-16
3.690310058e-08
1.725429596e-07
1.43698804e-07
6.354661108e-08
2.627987731e-07
4.059973857e-07
1.627468664e-07
3.322056602e-07
1.630820795e-07
-2.797081299e-17
-5.940272612e-17
-9.123735249e-17
-1.217177565e-16
-1.517873273e-16
-1.815535398e-16
-2.10986087e-16
-2.400395674e-16
-2.68665225e-16
-2.968142646e-16
-3.244391275e-16
-3.51494836e-16
-3.779390873e-16
-4.037316925e-16
-4.288347052e-16
-4.532123721e-16
-4.768312507e-16
-4.99660402e-16
-5.216710344e-16
-5.428367704e-16
-5.631334671e-16
-5.825393572e-16
-6.010346324e-16
-6.186016736e-16
-6.352246699e-16
-6.508897113e-16
-6.655845424e-16
-6.792986569e-16
-6.920228776e-16
-7.037494852e-16
-7.144720322e-16
-7.241850389e-16
-7.328841443e-16
-7.405657298e-16
-7.472269388e-16
-7.528655777e-16
-7.574799137e-16
-7.610686861e-16
-7.636308964e-16
-7.651660256e-16
-3.828797112e-16
1.240573315e-08
2.218674523e-07
1.372345369e-07
5.276254255e-08
1.561353037e-07
6.328085634e-08
4.808792433e-07
-1.048534144e-07
3.412730118e-07
-2.798873837e-17
-5.942165053e-17
-9.123447001e-17
-1.217339393e-16
-1.518100143e-16
-1.81578483e-16
-2.110136564e-16
-2.400706513e-16
-2.68699792e-16
-2.968522111e-16
-3.244803747e-16
-3.515393197e-16
-3.779866466e-16
-4.037821197e-16
-4.288877503e-16
-4.532678811e-16
-4.768891127e-16
-4.997204035e-16
-5.217330223e-16
-5.429006195e-16
-5.631990511e-16
-5.826064968e-16
-6.011032369e-16
-6.186716074e-16
-6.352958016e-16
-6.509618864e-16
-6.656576193e-16
-6.793724506e-16
-6.92097282e-16
-7.038243188e-16
-7.145471336e-16
-7.2426032e-16
-7.329594223e-16
-7.406409037e-16
-7.473019337e-16
-7.529402251e-16
-7.575541484e-16
-7.611424086e-16
-7.637040724e-16
-7.652385624e-16
-3.829086622e-16
-6.937687875e-08
1.864391401e-07
1.665220039e-07
1.898622375e-07
2.948778943e-07
-9.01665929e-08
5.151378475e-07
-3.021337847e-07
4.624146333e-07
-2.799022482e-17
-5.945474928e-17
-9.123875241e-17
-1.217458723e-16
-1.518263962e-16
-1.815970456e-16
-2.110348395e-16
-2.400949237e-16
-2.687271172e-16
-2.968823521e-16
-3.245131521e-16
-3.515746552e-16
-3.780243856e-16
-4.038221281e-16
-4.28929844e-16
-4.533118776e-16
-4.769349244e-16
-4.99767886e-16
-5.217820938e-16
-5.429511594e-16
-5.632509828e-16
-5.826597105e-16
-6.011576367e-16
-6.187270644e-16
-6.353522063e-16
-6.510191179e-16
-6.657156159e-16
-6.794310474e-16
-6.921563321e-16
-7.03883759e-16
-7.146067919e-16
-7.243200664e-16
-7.330191838e-16
-7.407005385e-16
-7.473613669e-16
-7.529993868e-16
-7.576128896e-16
-7.612006872e-16
-7.637617981e-16
-7.652957039e-16
-3.829292064e-16
-1.200669203e-07
8.749837248e-08
6.997177096e-08
2.421931526e-07
5.148230133e-07
-9.394451057e-08
3.214660985e-07
-2.096002145e-07
5.507691462e-07
-2.797743528e-17
-5.947279467e-17
-9.124855116e-17
-1.217569457e-16
-1.51838093e-16
-1.816092377e-16
-2.110490307e-16
-2.401116476e-16
-2.687464881e-16
-2.969040782e-16
-3.245368735e-16
-3.516001899e-16
-3.780516565e-16
-4.038509742e-16
-4.28960187e-16
-4.533435827e-16
-4.769678716e-16
-4.998020325e-16
-5.218173909e-16
-5.429874937e-16
-5.632883342e-16
-5.826979972e-16
-6.011968006e-16
-6.1876699e-16
-6.353928231e-16
-6.510603827e-16
-6.657573789e-16
-6.794732677e-16
-6.921988945e-16
-7.039265481e-16
-7.146497675e-16
-7.243630976e-16
-7.3306217e-16
-7.407434016e-16
-7.47403965e-16
-7.530416978e-16
-7.576548598e-16
-7.612421945e-16
-7.638028346e-16
-7.653361385e-16
-3.829407965e-16
-9.132735707e-08
6.318562717e-08
-1.202483026e-07
5.682806633e-08
7.051766651e-07
1.339778005e-07
-6.779443628e-08
-4.749031391e-07
4.985423491e-07
-2.797052199e-17
-5.947313079e-17
-9.125757202e-17
-1.217663583e-16
-1.518464622e-16
-1.81616416e-16
-2.110565372e-16
-2.40120522e-16
-2.687573126e-16
-2.96916656e-16
-3.245508851e-16
-3.51615301e-16
-3.780677575e-16
-4.038679779e-16
-4.289780284e-16
-4.533622159e-16
-4.769872326e-16
-4.998220859e-16
-5.218380488e-16
-5.430088101e-16
-5.633102457e-16
-5.827205007e-16
-6.01219776e-16
-6.187904604e-16
-6.354167074e-16
-6.510846145e-16
-6.657819415e-16
-6.794980642e-16
-6.922238746e-16
-7.039516694e-16
-7.146749107e-16
-7.243882297e-16
-7.33087191e-16
-7.407682592e-16
-7.474286272e-16
-7.530660293e-16
-7.576788213e-16
-7.612657692e-16
-7.638259047e-16
-7.653586515e-16
-3.829428513e-16
-2.855859447e-08
1.771409522e-07
-2.197579694e-07
-3.346003136e-07
5.999759956e-07
6.797615292e-07
-1.851793613e-07
-5.706877129e-07
3.435065373e-07
-2.797333298e-17
-5.946669974e-17
-9.126143274e-17
-1.217705421e-16
-1.518512442e-16
-1.816195317e-16
-2.110584201e-16
-2.401219821e-16
-2.687594733e-16
-2.969196777e-16
-3.245545431e-16
-3.516194219e-16
-3.780721089e-16
-4.038725461e-16
-4.289827828e-16
-4.533671063e-16
-4.769922672e-16
-4.998272701e-16
-5.21843404e-16
-5.430143023e-16
-5.633159013e-16
-5.827262947e-16
-6.012257504e-16
-6.187965524e-16
-6.354229351e-16
-6.510908847e-16
-6.657882873e-16
-6.795044349e-16
-6.922302808e-16
-7.039580426e-16
-7.146812506e-16
-7.243944374e-16
-7.330932545e-16
-7.407740934e-16
-7.474341954e-16
-7.530712943e-16
-7.576837213e-16
-7.612702549e-16
-7.638299454e-16
-7.653622345e-16
-3.829348976e-16
-1.733880855e-08
3.278275971e-07
-1.081515329e-07
-6.390979163e-07
2.993657397e-08
9.078131124e-07
-1.121831538e-07
-5.352637951e-07
1.476616954e-07
-2.797950916e-17
-5.946314906e-17
-9.126096392e-17
-1.217667458e-16
-1.518500435e-16
-1.816181639e-16
-2.110550811e-16
-2.401166523e-16
-2.687531522e-16
-2.969129136e-16
-3.245474974e-16
-3.516119974e-16
-3.780642186e-16
-4.038641005e-16
-4.289738005e-16
-4.533576753e-16
-4.769823884e-16
-4.998169744e-16
-5.218327154e-16
-5.430032967e-16
-5.633046047e-16
-5.82714717e-16
-6.012139169e-16
-6.187844805e-16
-6.35410611e-16
-6.510784036e-16
-6.65775581e-16
-6.79491589e-16
-6.922172437e-16
-7.039448302e-16
-7.146677971e-16
-7.243807961e-16
-7.330793754e-16
-7.407599514e-16
-7.474197397e-16
-7.530565151e-16
-7.576686038e-16
-7.612547207e-16
-7.638139986e-16
-7.653458287e-16
-3.829164846e-16
-8.935094686e-08
3.603980506e-07
1.154425498e-07
-5.550942555e-07
-4.922303671e-07
6.672554947e-07
-6.524612258e-08
-3.572409248e-07
-5.289734527e-09
-2.798242865e-17
-5.946327018e-17
-9.125968469e-17
-1.217559898e-16
-1.518410437e-16
-1.816105999e-16
-2.110458091e-16
-2.401044889e-16
-2.687384774e-16
-2.968963723e-16
-3.245294451e-16
-3.515926843e-16
-3.780436608e-16
-4.038422726e-16
-4.289507012e-16
-4.533334316e-16
-4.769570575e-16
-4.997906237e-16
-5.218054529e-16
-5.429751744e-16
-5.632757e-16
-5.826851231e-16
-6.011836465e-16
-6.187535976e-16
-6.353791512e-16
-6.510464196e-16
-6.657431302e-16
-6.794587046e-16
-6.92183963e-16
-7.039111848e-16
-7.146338451e-16
-7.243464867e-16
-7.330447453e-16
-7.407250132e-16
-7.473844487e-16
-7.530208484e-16
-7.57632589e-16
-7.612183142e-16
-7.637771948e-16
-7.653086135e-16
-3.828872992e-16
-1.996854439e-07
2.225795921e-07
1.963616937e-07
-2.804397439e-07
-6.522124554e-07
2.548973257e-07
-1.505291442e-07
-1.933596405e-07
-4.64153257e-08
-2.798052299e-17
-5.946108922e-17
-9.125821303e-17
-1.217416779e-16
-1.518243541e-16
-1.815952382e-16
-2.110291475e-16
-2.40084842e-16
-2.687152546e-16
-2.968698873e-16
-3.245003063e-16
-3.51561174e-16
-3.780100089e-16
-4.038065941e-16
-4.289130539e-16
-4.53293915e-16
-4.769158161e-16
-4.997477515e-16
-5.217610866e-16
-5.429294222e-16
-5.632286738e-16
-5.826368831e-16
-6.011343395e-16
-6.187032619e-16
-6.353278873e-16
-6.509943142e-16
-6.656902834e-16
-6.794051761e-16
-6.921298533e-16
-7.038565288e-16
-7.145786893e-16
-7.242908857e-16
-7.329886893e-16
-7.406685479e-16
-7.473275969e-16
-7.529636562e-16
-7.575749746e-16
-7.611603646e-16
-7.637188778e-16
-7.652499135e-16
-3.828470363e-16
-2.695417657e-07
4.226874405e-08
1.005098402e-07
-8.763124411e-08
-5.148491557e-07
-1.374609891e-08
-2.556897991e-07
-1.767111457e-07
3.678213255e-08
-2.797687138e-17
-5.945233384e-17
-9.125322171e-17
-1.21726946e-16
-1.518019103e-16
-1.815714324e-16
-2.110037526e-16
-2.4005663e-16
-2.686828817e-16
-2.96833285e-16
-3.244599294e-16
-3.515174474e-16
-3.779631212e-16
-4.037567825e-16
-4.288605518e-16
-4.532388678e-16
-4.768583725e-16
-4.996880823e-16
-5.216992931e-16
-5.428656833e-16
-5.631631083e-16
-5.825696402e-16
-6.010655514e-16
-6.186330385e-16
-6.352564133e-16
-6.509216234e-16
-6.656165517e-16
-6.793305225e-16
-6.920543488e-16
-7.037803217e-16
-7.14501799e-16
-7.242134336e-16
-7.329106866e-16
-7.405900592e-16
-7.472486844e-16
-7.52884296e-16
-7.574952391e-16
-7.610802542e-16
-7.636384217e-16
-7.651691325e-16
-3.82795525e-16
-2.656748801e-07
-5.20037939e-08
-4.022932594e-08
-5.978922357e-08
-2.876810898e-07
-5.068833619e-08
-1.809496192e-07
-3.014183654e-07
1.881631792e-07
-2.797487272e-17
-5.94390542e-17
-9.124001229e-17
-1.217129686e-16
-1.517766423e-16
-1.815404169e-16
-2.109693931e-16
-2.400189615e-16
-2.686407515e-16
-2.967861946e-16
-3.244081048e-16
-3.514612816e-16
-3.779028988e-16
-4.036927861e-16
-4.287930189e-16
-4.531680407e-16
-4.767844406e-16
-4.996112569e-16
-5.216197516e-16
-5.427835989e-16
-5.630786536e-16
-5.824830328e-16
-6.009769373e-16
-6.185426312e-16
-6.351643044e-16
-6.508280301e-16
-6.655215962e-16
-6.792343734e-16
-6.919571166e-16
-7.0368215e-16
-7.1440282e-16
-7.241137035e-16
-7.328103425e-16
-7.404891474e-16
-7.471472523e-16
-7.527824401e-16
-7.573929828e-16
-7.609776418e-16
-7.63535488e-16
-7.650659059e-16
-3.827325658e-16
-2.124355139e-07
-3.632781944e-08
-9.91661801e-08
-9.90377718e-08
-1.260540076e-07
2.125840388e-08
8.323946077e-08
-4.611333392e-07
3.577729238e-07
-2.797433891e-17
-5.942719786e-17
-9.121502644e-17
-1.216970901e-16
-1.517498832e-16
-1.815040807e-16
-2.10927042e-16
-2.399719142e-16
-2.685885516e-16
-2.967283758e-16
-3.243447103e-16
-3.513926153e-16
-3.778292328e-16
-4.036144346e-16
-4.287103475e-16
-4.530812913e-16
-4.766939014e-16
-4.995171327e-16
-5.215222612e-16
-5.426829924e-16
-5.629751844e-16
-5.823768658e-16
-6.00868303e-16
-6.184317201e-16
-6.350513838e-16
-6.50713268e-16
-6.65405166e-16
-6.791164691e-16
-6.918379415e-16
-7.035618325e-16
-7.142815045e-16
-7.239915146e-16
-7.326873864e-16
-7.403655623e-16
-7.470230839e-16
-7.526577868e-16
-7.572679245e-16
-7.608522036e-16
-7.634097586e-16
-7.649399515e-16
-3.826581889e-16
-1.554162999e-07
2.534087912e-08
-5.873572864e-08
-7.411212012e-08
-3.754166103e-08
8.302839185e-08
3.504507829e-07
-5.53429049e-07
5.259480225e-07
-2.797141508e-17
-5.941857072e-17
-9.117851109e-17
-1.216726346e-16
-1.517184556e-16
-1.814620444e-16
-2.108773699e-16
-2.399158386e-16
-2.685262349e-16
-2.966597113e-16
-3.242696905e-16
-3.513113562e-16
-3.777421283e-16
-4.035218025e-16
-4.286124963e-16
-4.529786254e-16
-4.765866795e-16
-4.994056466e-16
-5.214068161e-16
-5.425638281e-16
-5.628525231e-16
-5.822510403e-16
-6.007395762e-16
-6.18300322e-16
-6.349175225e-16
-6.505772472e-16
-6.65267193e-16
-6.789767658e-16
-6.916966902e-16
-7.034192307e-16
-7.141377238e-16
-7.238467308e-16
-7.325417336e-16
-7.402191417e-16
-7.468760727e-16
-7.525102171e-16
-7.571199079e-16
-7.607038806e-16
-7.632611756e-16
-7.647911653e-16
-3.825723321e-16
-1.162981935e-07
6.724009889e-08
8.770871762e-09
2.633628184e-08
4.567505227e-08
1.656824385e-07
4.798410627e-07
-5.686462312e-07
5.835750455e-07
-2.796176411e-17
-5.941259373e-17
-9.114164567e-17
-1.21639269e-16
-1.516802925e-16
-1.814139115e-16
-2.108206268e-16
-2.398512449e-16
-2.68454134e-16
-2.96580324e-16
-3.241830552e-16
-3.512176428e-16
-3.776416406e-16
-4.034149045e-16
-4.284996325e-16
-4.52860099e-16
-4.76462871e-16
-4.992768467e-16
-5.212733588e-16
-5.424260517e-16
-5.627107637e-16
-5.821055814e-16
-6.005907164e-16
-6.181483818e-16
-6.347627968e-16
-6.504199786e-16
-6.651076934e-16
-6.788152433e-16
-6.915334384e-16
-7.032543897e-16
-7.139715817e-16
-7.236794038e-16
-7.323734141e-16
-7.400499805e-16
-7.467061982e-16
-7.523398172e-16
-7.569490532e-16
-7.605326715e-16
-7.630897072e-16
-7.646195373e-16
-3.824751337e-16
-8.7257077e-08
8.167746804e-08
4.528970099e-08
1.024773841e-07
1.249991455e-07
3.239196541e-07
2.913853998e-07
-3.201262498e-07
4.800889555e-07
-2.794360378e-17
-5.939790279e-17
-9.110868982e-17
-1.215966949e-16
-1.516326685e-16
-1.813583932e-16
-2.107565797e-16
-2.397783612e-16
-2.683726382e-16
-2.964903844e-16
-3.24084879e-16
-3.511114981e-16
-3.775278479e-16
-4.032939004e-16
-4.283717681e-16
-4.527258088e-16
-4.763225207e-16
-4.991308833e-16
-5.211221104e-16
-5.422698395e-16
-5.625500061e-16
-5.819406256e-16
-6.004219175e-16
-6.179760845e-16
-6.345873515e-16
-6.502416759e-16
-6.649268326e-16
-6.786320971e-16
-6.913482812e-16
-7.030675004e-16
-7.137831457e-16
-7.234896801e-16
-7.321825764e-16
-7.398582426e-16
-7.465136683e-16
-7.521466689e-16
-7.567554443e-16
-7.603387158e-16
-7.628955545e-16
-7.644252801e-16
-3.823666984e-16
-5.646504893e-08
9.568133711e-08
5.414117691e-08
8.244748129e-08
2.005664372e-07
6.818101684e-07
-1.60948392e-07
-9.058546797e-08
2.006814536e-07
-2.792524843e-17
-5.937590213e-17
-9.108533575e-17
-1.215495934e-16
-1.515755854e-16
-1.812942138e-16
-2.106842969e-16
-2.396970202e-16
-2.682818138e-16
-2.963901418e-16
-3.239754435e-16
-3.509931207e-16
-3.774009621e-16
-4.031589309e-16
-4.282291636e-16
-4.52575982e-16
-4.761659139e-16
-4.989679181e-16
-5.209532244e-16
-5.420954716e-16
-5.623705379e-16
-5.817564261e-16
-6.002334166e-16
-6.177836871e-16
-6.343914018e-16
-6.500425714e-16
-6.647248745e-16
-6.7842763e-16
-6.911415874e-16
-7.028588389e-16
-7.135727801e-16
-7.232778848e-16
-7.319695735e-16
-7.396441785e-16
-7.46298828e-16
-7.519311505e-16
-7.565394336e-16
-7.601223518e-16
-7.626789547e-16
-7.642086337e-16
-3.822472682e-16
-2.241388329e-08
1.284056017e-07
6.513148914e-08
-2.492053925e-08
1.93974543e-07
1.16848048e-06
-3.662417527e-07
4.525563953e-07
-1.029271914e-08
-2.791107431e-17
-5.934061622e-17
-9.106725574e-17
-1.215054119e-16
-1.515148976e-16
-1.812235531e-16
-2.1060432e-16
-2.396071792e-16
-2.681817486e-16
-2.962797259e-16
-3.238548489e-16
-3.508627344e-16
-3.772612153e-16
-4.03010288e-16
-4.280720674e-16
-4.524109124e-16
-4.759933142e-16
-4.987882674e-16
-5.207670301e-16
-5.419031646e-16
-5.621726078e-16
-5.815533509e-16
-6.000256154e-16
-6.175715584e-16
-6.341754033e-16
-6.498230522e-16
-6.645022129e-16
-6.782021955e-16
-6.909136966e-16
-7.026287838e-16
-7.13340876e-16
-7.230443783e-16
-7.317347479e-16
-7.394082627e-16
-7.460619975e-16
-7.51693645e-16
-7.563014247e-16
-7.598840001e-16
-7.624404177e-16
-7.639700521e-16
-3.821170654e-16
7.790570827e-09
1.795753505e-07
1.041358582e-07
-1.360308398e-07
3.467068946e-08
1.216149245e-06
-3.738003454e-07
6.004985669e-07
-2.227696537e-08
-2.790767221e-17
-5.928943782e-17
-9.103219189e-17
-1.214567491e-16
-1.514513579e-16
-1.811481374e-16
-2.105176604e-16
-2.395092795e-16
-2.68072566e-16
-2.961592765e-16
-3.237233071e-16
-3.507205538e-16
-3.77108858e-16
-4.028482204e-16
-4.279007668e-16
-4.522308721e-16
-4.758051065e-16
-4.985923611e-16
-5.205639329e-16
-5.416934277e-16
-5.619567107e-16
-5.813318194e-16
-5.997989068e-16
-6.173401675e-16
-6.339397713e-16
-6.495835908e-16
-6.642593724e-16
-6.779562902e-16
-6.906651176e-16
-7.023779066e-16
-7.130879919e-16
-7.227897484e-16
-7.314786637e-16
-7.391509873e-16
-7.458037573e-16
-7.514346774e-16
-7.56041914e-16
-7.596241353e-16
-7.621804045e-16
-7.637100094e-16
-3.819764442e-16
2.306882651e-08
2.395238753e-07
2.035752262e-07
-1.049905656e-07
-1.709676631e-08
9.482684575e-07
-1.208238824e-07
2.570601617e-07
-1.27604372e-07
-2.791272677e-17
-5.925574127e-17
-9.098481658e-17
-1.213999867e-16
-1.513831603e-16
-1.810678046e-16
-2.104247719e-16
-2.394037932e-16
-2.679545956e-16
-2.960290219e-16
-3.235811542e-16
-3.505668772e-16
-3.769441568e-16
-4.02673057e-16
-4.277156416e-16
-4.520363172e-16
-4.756016449e-16
-4.983805869e-16
-5.203444223e-16
-5.414667187e-16
-5.617233683e-16
-5.810923516e-16
-5.995538524e-16
-6.170900705e-16
-6.336850823e-16
-6.493248074e-16
-6.639968756e-16
-6.776905384e-16
-6.903964703e-16
-7.021067412e-16
-7.128146465e-16
-7.225145552e-16
-7.312019108e-16
-7.388729718e-16
-7.45524727e-16
-7.511548647e-16