/*--------------------------------*- C++ -*----------------------------------*\
  =========                 |
  \\      /  F ield         | OpenFOAM: The Open Source CFD Toolbox
   \\    /   O peration     | Website:  https://openfoam.org
    \\  /    A nd           | Version:  6
     \\/     M anipulation  |
\*---------------------------------------------------------------------------*/
FoamFile
{
    version     2.0;
    format      ascii;
    class       volScalarField;
    location    "0.09";
    object      p;
}
// * * * * * * * * * * * * * * * * * * * * * * * * * * * * * * * * * * * * * //

dimensions      [1 -1 -2 0 0 0 0];

internalField   nonuniform List<scalar> 
2500
(
0.3841740104
0.269498984
0.2733048784
0.2551255229
0.2611879004
0.2897862592
0.3088079901
0.3364155163
27276.37344
27356.06339
27434.88167
27512.36465
27587.9004
27660.94472
27731.03369
27797.79197
27860.93586
27920.27172
27975.69045
28027.15921
28074.7113
28118.43518
28158.46344
28194.96223
28228.12167
28258.14733
28285.25307
28309.65502
28331.56688
28351.19625
28368.7419
28384.39188
28398.3223
28410.69661
28421.66536
28431.36625
28439.92441
28447.45285
28454.05306
28459.81559
28464.82071
28469.13909
28472.83239
28475.95385
28478.54884
28480.65535
28482.30438
28483.52029
28484.3211
28484.71864
0.2204022275
0.2366586399
0.2491663172
0.2387092208
0.2432684811
0.2682454626
0.2909337148
0.2982406928
27276.34099
27356.73726
27436.21739
27514.31159
27590.39152
27663.89975
27734.36407
27801.40607
27864.74367
27924.18869
27979.64034
28031.07589
28078.53959
28122.13097
28161.99313
28198.30188
28231.2558
28261.06768
28287.95731
28312.1456
28333.84991
28353.28053
28370.63816
28386.11206
28399.87903
28412.10281
28422.93388
28432.50965
28440.9548
28448.38178
28454.89144
28460.5737
28465.50817
28469.7649
28473.40495
28476.48104
28479.03806
28481.11358
28482.73824
28483.93614
28484.7251
28485.11693
0.1127186666
0.2313732774
0.2716381825
0.2717534932
0.2625380951
0.2707696082
0.2835172031
0.2853552972
27276.33173
27358.12154
27438.93941
27518.27261
27595.45414
27669.89845
27741.11661
27808.72446
27872.44402
27932.09908
27987.6065
28038.96468
28086.24059
28129.55643
28169.07681
28204.99702
28237.53269
28266.91106
28293.36376
28317.12108
28338.40757
28357.43882
28374.41917
28389.54024
28402.98007
28414.90284
28425.45885
28434.78485
28443.00455
28450.22924
28456.55847
28462.08083
28466.87464
28471.00865
28474.54276
28477.52859
28480.01009
28482.02396
28483.60016
28484.76223
28485.52756
28485.90765
0.02253387136
0.1954927675
0.259780118
0.2793056338
0.2695782167
0.2717957501
0.2777407848
0.2866458969
27276.3317
27360.26561
27443.14633
27524.38503
27603.25366
27679.12302
27751.47919
27819.93094
27884.20877
27944.15711
27999.72199
28050.93594
28097.90197
28140.77776
28179.76115
28215.07726
28246.96752
28275.68083
28301.46635
28324.56819
28345.22132
28363.6489
28380.0604
28394.65059
28407.59915
28419.07064
28429.21485
28438.16739
28446.05037
28452.97321
28459.03345
28464.31762
28468.90199
28472.85341
28476.22996
28479.08162
28481.45086
28483.37315
28484.87737
28485.9862
28486.7164
28487.07903
-0.04148528316
0.1464516666
0.2202434465
0.2563025288
0.2580629799
0.2553793903
0.2642188079
0.279470065
27276.32929
27363.25244
27448.99553
27532.86717
27614.05205
27691.86038
27765.74583
27835.31109
27900.30284
27960.59855
28016.18847
28067.15532
28113.65388
28155.89189
28194.11329
28228.58391
28259.57997
28287.37908
28312.2534
28334.4648
28354.26148
28371.87595
28387.52383
28401.40352
28413.69626
28424.56669
28434.16352
28442.62051
28450.05737
28456.58083
28462.28558
28467.25526
28471.56339
28475.27414
28478.44315
28481.11817
28483.33971
28485.14153
28486.55109
28487.58992
28488.27394
28488.61363
-0.07054291636
0.09829645044
0.1648649255
0.2174156099
0.2282218665
0.2309999569
0.2478544157
0.2651588051
27276.32444
27367.20297
27456.71638
27544.03558
27628.22643
27708.52012
27784.33218
27855.2644
27921.09272
27981.7457
28037.2781
28087.84321
28133.66664
28175.02308
28212.21673
28245.56571
28275.39005
28302.00286
28325.70417
28346.77695
28365.48473
28382.07047
28396.75639
28409.74434
28421.21667
28431.33732
28440.25305
28448.09478
28454.97882
28461.0082
28466.27382
28470.85555
28474.82325
28478.23771
28481.15142
28483.60931
28485.64939
28487.30328
28488.59665
28489.54959
28490.17695
28490.48848
-0.06653029929
0.06633863239
0.1171624142
0.1738341995
0.1962405524
0.219541729
0.2324874071
0.2533606469
27276.32022
27372.28854
27466.63156
27558.33164
27646.29721
27729.66077
27807.79777
27880.32116
27947.05766
28008.01333
28063.33507
28113.27298
28158.14677
28198.31753
28234.16541
28266.07282
28294.41239
28319.5389
28341.78428
28361.45496
28378.83089
28394.16573
28407.68784
28419.60173
28430.08972
28439.31385
28447.4176
28454.52774
28460.75597
28466.20039
28470.94701
28475.07092
28478.63744
28481.70312
28484.3166
28486.51936
28488.34638
28489.82667
28490.98374
28491.83598
28492.39691
28492.67544
-0.04375153494
0.0436416768
0.08107401712
0.1405396944
0.1864244363
0.2213997904
0.2223684368
0.2494261861
27276.32604
27378.75133
27479.18961
27576.36123
27668.96897
27756.02702
27836.87617
27911.16421
27978.80307
28039.91477
28094.77594
28143.76714
28187.33034
28225.93538
28260.05518
28290.14846
28316.64855
28339.95688
28360.43994
28378.4286
28394.21904
28408.07464
28420.22848
28430.88597
28440.22764
28448.41174
28455.57676
28461.84366
28467.31794
28472.09144
28476.24398
28479.84476
28482.95355
28485.62182
28487.8936
28489.80626
28491.39121
28492.67439
28493.6768
28494.41479
28494.90039
28495.1415
-0.02024260639
0.01768756087
0.04335198685
0.1060601025
0.1760011379
0.2221327672
0.2299852567
0.2569889848
27276.35888
27386.93302
27495.014
27598.95327
27697.18895
27788.60087
27872.51461
27948.65569
28017.07522
28078.06662
28132.08689
28179.68963
28221.47256
28258.03909
28289.97219
28317.81808
28342.07729
28363.20099
28381.59089
28397.60138
28411.54295
28423.68628
28434.26643
28443.48702
28451.5241
28458.52972
28464.63506
28469.95323
28474.58172
28478.60449
28482.09378
28485.11164
28487.71127
28489.93811
28491.83081
28493.42198
28494.7389
28495.80401
28496.63539
28497.24711
28497.64947
28497.84925
-0.009056623979
-0.01200634149
-0.005332655951
0.05206405708
0.138126721
0.2065012916
0.2538790757
0.2540377225
27276.41776
27397.32369
27514.9792
27627.24684
27732.23063
27828.67111
27915.92435
27993.86781
28062.77501
28123.1895
28175.81557
28221.43238
28260.83179
28294.77694
28323.97721
28349.07524
28370.64245
28389.17983
28405.12219
28418.84401
28430.66607
28440.86206
28449.66491
28457.27255
28463.85303
28469.54899
28474.48154
28478.7535
28482.45226
28485.65208
28488.41606
28490.79782
28492.84284
28494.58962
28496.07063
28497.31306
28498.3395
28499.16846
28499.81476
28500.28989
28500.60225
28500.75735
-0.01221899777
-0.03256726637
-0.04980749869
-0.01423823062
0.0728514885
0.1654790933
0.2476557784
0.1696661839
27276.53035
27410.65936
27540.33031
27662.82122
27775.81272
27877.9262
27968.64213
28048.11517
28116.96705
28176.1008
28226.55388
28269.39314
28305.64605
28336.26056
28362.08539
28383.86421
28402.23841
28417.75467
28430.87501
28441.9874
28451.41624
28459.43196
28466.25958
28472.08623
28477.06747
28481.33269
28484.98961
28488.128
28490.82278
28493.13654
28495.12162
28496.8218
28498.27372
28499.50799
28500.55011
28501.42121
28502.1387
28502.71668
28503.16642
28503.49656
28503.71342
28503.8211
-0.01971496535
-0.03835509484
-0.06688845028
-0.05865785137
0.01601142267
0.1062862463
0.152612052
-0.01069137365
27277.58787
27428.08405
27572.85775
27707.89046
27830.26872
27938.57569
28032.60075
28112.98256
28180.87691
28237.693
28284.90664
28323.9411
28356.09973
28382.53492
28404.24066
28422.0589
28436.69337
28448.7265
28458.63681
28466.81537
28473.58055
28479.19094
28483.85623
28487.74632
28490.99893
28493.72569
28496.01721
28497.94713
28499.57535
28500.95072
28502.11311
28503.0951
28503.92333
28504.6196
28505.20169
28505.68408
28506.07848
28506.39426
28506.63877
28506.81762
28506.93486
28506.99311
-0.02512327114
-0.03667504006
-0.05450955095
-0.06171020215
-0.004843619287
0.0477841441
-0.01436011387
-0.1885926696
27277.5673
27450.71405
27615.1177
27765.60678
27898.79017
28013.50305
28110.20028
28190.33645
28255.86506
28308.88828
28351.4396
28385.36612
28412.27812
28433.54005
28450.28472
28463.43857
28473.75084
28481.82228
28488.13146
28493.05775
28496.90068
28499.89605
28502.22906
28504.0449
28505.45723
28506.55493
28507.40743
28508.06895
28508.58179
28508.97892
28509.28605
28509.52321
28509.70597
28509.84645
28509.95404
28510.03602
28510.09799
28510.1442
28510.17789
28510.2014
28510.2164
28510.22392
-0.03025574557
-0.03436010907
-0.03749410906
-0.04189955998
-0.005794965297
0.0002374113205
-0.1617297053
-0.1558440404
27277.31951
27481.3197
27671.27951
27840.61782
27985.77422
28106.44127
28204.35865
28282.29746
28343.35927
28390.55678
28426.59898
28453.80737
28474.10825
28489.06401
28499.92104
28507.66119
28513.05041
28516.68148
28519.01012
28520.38456
28521.06939
28521.26452
28521.12005
28520.74797
28520.23115
28519.63035
28518.98963
28518.34048
28517.70495
28517.09814
28516.53
28516.00675
28515.53194
28515.10724
28514.73308
28514.40907
28514.13432
28513.90777
28513.72828
28513.59481
28513.50651
28513.4628
-0.03828017565
-0.03732950968
-0.03231153104
-0.02686470201
-0.01434322125
-0.04794997989
-0.2081047584
0.2553337962
27278.87773
27524.84937
27748.04457
27939.79465
28097.23754
28222.12421
28318.49419
28391.13622
28444.71963
28483.38292
28510.59456
28529.15841
28541.28556
28548.68858
28552.67591
28554.23623
28554.10946
28552.84434
28550.84412
28548.40205
28545.72884
28542.97358
28540.23965
28537.59676
28535.09001
28532.74667
28530.58126
28528.59936
28526.80039
28525.1797
28523.73009
28522.4429
28521.30884
28520.31857
28519.46305
28518.73391
28518.12356
28517.62537
28517.23374
28516.94413
28516.75315
28516.65851
-0.04996875416
-0.04583634257
-0.03933119739
-0.0329897017
-0.0243073756
-0.1010982902
-0.1472754855
0.9825742432
27282.73429
27589.61452
27856.22534
28073.25576
28241.24581
28366.32029
28456.35854
28519.03654
28561.0038
28587.66441
28603.24131
28610.94913
28613.18954
28611.73098
28607.85962
28602.49994
28596.30822
28589.74355
28583.1211
28576.65175
28570.47136
28564.66229
28559.26917
28554.31037
28549.78642
28545.68601
28541.99035
28538.67629
28535.71855
28533.0912
28530.76877
28528.72694
28526.94301
28525.39618
28524.06771
28522.94103
28522.00171
28521.2375
28520.63825
28520.19594
28519.90455
28519.76013
-0.06479609655
-0.05968537406
-0.05397583735
-0.05386398044
-0.04033999181
-0.1328469411
-0.0365390359
1.705970862
27294.49872
27692.64898
28013.94144
28255.72944
28428.16099
28545.55382
28621.5885
28667.65413
28692.60086
28703.03506
28703.76162
28698.21088
28688.79541
28677.18855
28664.53356
28651.59729
28638.88131
28626.70174
28615.24607
28604.6135
28594.84353
28585.936
28577.86528
28570.59006
28564.06023
28558.22154
28553.01877
28548.39787
28544.30729
28540.69876
28537.52785
28534.7541
28532.34111
28530.25646
28528.47165
28526.96185
28525.70584
28524.68573
28523.88693
28523.29789
28522.91008
28522.71786
-0.08214893216
-0.07713532508
-0.07289046457
-0.07674026856
-0.07033122748
-0.1047674884
0.01002170362
1.99711703
27339.15881
27870.07327
28251.10612
28507.53875
28670.11815
28766.15714
28816.80045
28837.40213
28838.71981
28828.1206
28810.56476
28789.34151
28766.59583
28743.69666
28721.49071
28700.47588
28680.91929
28662.93717
28646.54895
28631.71361
28618.35415
28606.3738
28595.66677
28586.12526
28577.6438
28570.12204
28563.46625
28557.59009
28552.41492
28547.86969
28543.89077
28540.42151
28537.41187
28534.81796
28532.60161
28530.72996
28529.17511
28527.91375
28526.92691
28526.1997
28525.72112
28525.4839
-0.101242572
-0.09610061936
-0.09309759317
-0.09404030692
-0.09347527222
-0.08514547279
-0.1381110365
1.610828704
27509.28676
28194.44054
28612.85238
28853.2184
28978.64664
29032.18528
29042.07727
29026.45138
28996.76803
28960.1715
28921.04146
28881.99893
28844.55285
28809.51385
28777.25846
28747.89762
28721.38393
28697.57969
28676.29984
28657.3387
28640.48649
28625.53909
28612.30359
28600.60122
28590.26852
28581.15746
28573.13499
28566.08225
28559.89353
28554.47528
28549.74501
28545.63031
28542.06793
28539.00293
28536.38791
28534.18233
28532.35195
28530.86832
28529.70835
28528.85397
28528.29187
28528.01327
-0.121239382
-0.1159773833
-0.115132589
-0.1153536965
-0.1317678246
-0.1062445617
-0.2542600558
0.6864986608
28035.29747
28782.27424
29152.77758
29313.93619
29359.13891
29341.91087
29292.9056
29229.57999
29161.74362
29094.76511
29031.43664
28973.06385
28920.10547
28872.54929
28830.13303
28792.47327
28759.14001
28729.69863
28703.73275
28680.85559
28660.71476
28642.9932
28627.40803
28613.70832
28601.67243
28591.10512
28581.83488
28573.71127
28566.60261
28560.39384
28554.98464
28550.28776
28546.22761
28542.73895
28539.76579
28537.26053
28535.1831
28533.5003
28532.18527
28531.21705
28530.58019
28530.26456
-0.1409653791
-0.1361058782
-0.1373375553
-0.1395134875
-0.1618512058
-0.1429178105
-0.2952101226
-0.1754271375
29224.12352
29743.55002
29902.41462
29890.80963
29802.17663
29683.47999
29558.09281
29437.2419
29325.87459
29225.71652
29136.8808
29058.7172
28990.25764
28930.44598
28878.2519
28832.72308
28793.00476
28758.34261
28728.07748
28701.63672
28678.52437
28658.31158
28640.6277
28625.15234
28611.60851
28599.75654
28589.38899
28580.32623
28572.41271
28565.51376
28559.51289
28554.30948
28549.81681
28545.96046
28542.67681
28539.91196
28537.62067
28535.76556
28534.31645
28533.24982
28532.54837
28532.20074
-0.1589861617
-0.1550971749
-0.1574918584
-0.1641169394
-0.1837044466
-0.2048765725
-0.3016881429
-0.7609255629
31159.701
31063.67409
30822.99821
30544.94421
30275.39638
30031.80073
29818.77547
29635.43664
29478.80474
29345.34978
29231.65488
29134.6674
29051.7623
28980.72525
28919.70562
28867.16251
28821.81353
28782.58981
28748.59817
28719.08985
28693.43493
28671.10163
28651.63945
28634.66552
28619.85346
28606.92431
28595.63912
28585.7928
28577.20912
28569.73652
28563.24463
28557.6214
28552.7707
28548.61027
28545.07007
28542.09087
28539.6231
28537.62588
28536.06623
28534.91849
28534.16381
28533.78981
-0.1739329931
-0.1713088272
-0.1742483939
-0.1868593664
-0.2007426799
-0.2700309871
-0.2628077038
-1.121016002
33482.66113
32529.31217
31781.25973
31190.7154
30722.72846
30349.57893
30049.78248
29806.92755
29608.55775
29445.22154
29309.71985
29196.53363
29101.3976
29020.98609
28952.68209
28894.40737
28844.49681
28801.6049
28764.63569
28732.68983
28705.02423
28681.02101
28660.16351
28642.01746
28626.21619
28612.44888
28600.45116
28589.99756
28580.89533
28572.97947
28566.10864
28560.16177
28555.0353
28550.64085
28546.90333
28543.75938
28541.15603
28539.04967
28537.40516
28536.19516
28535.39963
28535.00541
-0.1845632292
-0.1830266787
-0.1857791453
-0.2028271622
-0.206224956
-0.3066305388
-0.1550111445
-1.250602426
35547.26463
33793.94113
32581.94414
31713.89313
31075.19217
30593.97893
30223.82845
29933.91863
29703.26625
29517.25076
29365.4635
29240.34543
29136.30536
29049.13726
28975.62779
28913.28709
28860.16084
28814.69699
28775.64979
28742.00969
28712.95142
28687.79509
28665.97663
28647.0252
28630.54561
28616.20456
28603.71987
28592.85177
28583.39602
28575.17828
28568.04961
28561.88269
28556.56885
28552.01548
28548.14405
28544.88833
28542.19303
28540.01266
28538.31062
28537.05844
28536.23523
28535.82729
-0.1900406966
-0.1890680832
-0.1912989367
-0.2099415801
-0.203607214
-0.3110574417
-0.03000301235
-1.192702714
36751.41046
34524.74032
33038.26706
32007.50686
31270.04098
30727.23827
30317.58478
30001.62072
29753.31712
29555.03789
29394.52853
29263.07278
29154.33669
29063.62671
28987.40263
28922.95098
28868.16159
28821.37192
28781.25658
28746.74774
28716.97689
28691.23163
28668.92318
28649.56167
28632.73711
28618.1046
28605.37275
28594.29445
28584.65955
28576.28893
28569.02974
28562.75149
28557.34289
28552.70919
28548.77007
28545.45787
28542.71612
28540.49838
28538.76729
28537.4938
28536.65662
28536.24176
-0.1900406967
-0.1890680739
-0.1912989149
-0.209941541
-0.2036071583
-0.311057355
-0.03000299761
-1.192702331
36751.41041
34524.74035
33038.26706
32007.50684
31270.04093
30727.23822
30317.58471
30001.62065
29753.31705
29555.03782
29394.52848
29263.07273
29154.33665
29063.62668
28987.40261
28922.95097
28868.16159
28821.37193
28781.2566
28746.74777
28716.97693
28691.23168
28668.92324
28649.56173
28632.73718
28618.10468
28605.37283
28594.29454
28584.65964
28576.28902
28569.02984
28562.7516
28557.343
28552.7093
28548.77019
28545.45799
28542.71624
28540.49851
28538.76742
28537.49393
28536.65674
28536.24189
-0.1845632315
-0.183026654
-0.1857790835
-0.2028270481
-0.2062247799
-0.306630259
-0.1550109251
-1.250599883
35547.26456
33793.94123
32581.94415
31713.89306
31075.19203
30593.97874
30223.82824
29933.91841
29703.26603
29517.25056
29365.46332
29240.34528
29136.30524
29049.13717
28975.62773
28913.28706
28860.16084
28814.69702
28775.64985
28742.00978
28712.95154
28687.79523
28665.9768
28647.02539
28630.54581
28616.20479
28603.72012
28592.85204
28583.3963
28575.17858
28568.04991
28561.88301
28556.56918
28552.01583
28548.1444
28544.88868
28542.19339
28540.01303
28538.311
28537.05882
28536.23561
28535.82767
-0.1739330025
-0.1713087964
-0.1742483053
-0.1868591931
-0.2007423798
-0.2700305023
-0.2628069946
-1.121010476
33482.66114
32529.31234
31781.25974
31190.71527
30722.72822
30349.57861
30049.78211
29806.92718
29608.55738
29445.2212
29309.71954
29196.53337
29101.3974
29020.98593
28952.68199
28894.40732
28844.49681
28801.60495
28764.63579
28732.68998
28705.02442
28681.02125
28660.16379
28642.01777
28626.21653
28612.44925
28600.45157
28589.998
28580.89579
28572.97996
28566.10915
28560.1623
28555.03585
28550.64141
28546.90392
28543.75998
28541.15664
28539.05029
28537.40578
28536.19579
28535.40027
28535.00604
-0.1589861858
-0.1550971531
-0.1574917687
-0.1641167451
-0.1837040678
-0.2048759453
-0.3016868359
-0.7609176596
31159.70134
31063.67437
30822.99822
30544.94399
30275.39598
30031.80023
29818.77491
29635.43608
29478.8042
29345.34928
29231.65445
29134.66703
29051.76201
28980.72503
28919.70548
28867.16245
28821.81354
28782.58989
28748.59832
28719.09006
28693.4352
28671.10196
28651.63984
28634.66596
28619.85395
28606.92484
28595.63969
28585.79341
28577.20977
28569.7372
28563.24535
28557.62215
28552.77147
28548.61106
28545.07089
28542.09171
28539.62395
28537.62674
28536.0671
28534.91937
28534.1647
28533.7907
-0.1409654256
-0.1361058833
-0.1373374993
-0.1395133337
-0.1618508731
-0.1429172228
-0.2952085832
-0.175418987
29224.12463
29743.55051
29902.4146
29890.80925
29802.17601
29683.47925
29558.09202
29437.24112
29325.87385
29225.71585
29136.88023
29058.71672
28990.25726
28930.44571
28878.25173
28832.72301
28793.00478
28758.34271
28728.07767
28701.637
28678.52473
28658.31201
28640.6282
28625.15291
28611.60914
28599.75723
28589.38973
28580.32702
28572.41355
28565.51464
28559.51381
28554.31044
28549.81781
28545.96149
28542.67787
28539.91304
28537.62177
28535.76668
28534.31758
28533.25096
28532.54952
28532.20189
-0.1212394565
-0.1159774294
-0.1151325938
-0.115353635
-0.1317676933
-0.1062443734
-0.2542597602
0.6865050486
28035.29984
28782.27486
29152.77736
29313.93551
29359.13798
29341.90982
29292.90453
29229.57896
29161.74267
29094.76427
29031.43591
28973.06325
28920.105
28872.54895
28830.13281
28792.47318
28759.14003
28729.69877
28703.73299
28680.85593
28660.7152
28642.99373
28627.40865
28613.70902
28601.6732
28591.10597
28581.8358
28573.71225
28566.60365
28560.39493
28554.98577
28550.28895
28546.22884
28542.74021
28539.76709
28537.26186
28535.18445
28533.50167
28532.18665
28531.21844
28530.5816
28530.26597
-0.1012426778
-0.09610071514
-0.0930976631
-0.09404032399
-0.09347526672
-0.0851455474
-0.1381116274
1.61082568
27509.28768
28194.44042
28612.8516
28853.21722
28978.64525
29032.18383
29042.07585
29026.45005
28996.76684
28960.17046
28921.04057
28881.9982
28844.55229
28809.51345
28777.25821
28747.89752
28721.38397
28697.57987
28676.30014
28657.33912
28640.48703
28625.53972
28612.30433
28600.60206
28590.26945
28581.15847
28573.13608
28566.08341
28559.89476
28554.47657
28549.74636
28545.63171
28542.06938
28539.00443
28536.38944
28534.1839
28532.35355
28530.86995
28529.71
28528.85563
28528.29353
28528.01494
-0.08214907255
-0.07713548203
-0.07289060397
-0.07674032863
-0.0703311139
-0.104767268
0.01002239665
1.997109661
27339.15781
27870.07205
28251.10452
28507.53688
28670.11617
28766.15519
28816.79862
28837.40047
28838.71834
28828.11934
28810.56371
28789.34067
28766.59518
28743.6962
28721.49043
28700.47578
28680.91935
28662.93738
28646.54931
28631.71411
28618.35478
28606.37455
28595.66764
28586.12623
28577.64488
28570.12322
28563.46751
28557.59144
28552.41634
28547.87119
28543.89234
28540.42314
28537.41356
28534.8197
28532.60339
28530.73178
28529.17696
28527.91564
28526.92882
28526.20163
28525.72305
28525.48584
-0.06479627632
-0.0596856204
-0.05397609098
-0.0538641127
-0.04033972773
-0.1328464284
-0.03653770186
1.705959273
27294.49666
27692.64684
28013.9389
28255.72671
28428.15828
28545.55128
28621.5862
28667.65211
28692.59912
28703.03359
28703.76041
28698.20992
28688.79468
28677.18804
28664.53327
28651.59719
28638.8814
28626.702
28615.24649
28604.61408
28594.84425
28585.93687
28577.86628
28570.59118
28564.06147
28558.22288
28553.02022
28548.39942
28544.30892
28540.70048
28537.52964
28534.75596
28532.34303
28530.25844
28528.47368
28526.96393
28525.70795
28524.68788
28523.8891
28523.30008
28522.91229
28522.72007
-0.04996897846
-0.04583672974
-0.03933168839
-0.03299013421
-0.0243074219
-0.101098165
-0.147275241
0.9825707148
27282.73356
27589.61177
27856.22167
28073.25195
28241.24222
28366.31709
28456.35574
28519.03415
28561.00178
28587.66274
28603.23995
28610.94806
28613.18875
28611.73045
28607.85931
28602.49985
28596.30834
28589.74386
28583.1216
28576.65242
28570.4722
28564.66328
28559.2703
28554.31164
28549.78782
28545.68753
28541.99198
28538.67803
28535.72039
28533.09313
28530.77078
28528.72903
28526.94517
28525.39841
28524.07
28522.94337
28522.00409
28521.23991
28520.6407
28520.1984
28519.90703
28519.76261
-0.0382804404
-0.03733008695
-0.0323124411
-0.02686581505
-0.01434416088
-0.04795048705
-0.208104936
0.2553408714
27278.87873
27524.84493
27748.03899
27939.78937
28097.23294
28222.1203
28318.49091
28391.13348
28444.71736
28483.38107
28510.59308
28529.15727
28541.28473
28548.68802
28552.67561
28554.23617
28554.10962
28552.84472
28550.8447
28548.40282
28545.72979
28542.9747
28540.24093
28537.59819
28535.09158
28532.74837
28530.58309
28528.6013
28526.80244
28525.18186
28523.73234
28522.44523
28521.31125
28520.32105
28519.4656
28518.73651
28518.12621
28517.62806
28517.23645
28516.94688
28516.75591
28516.66128
-0.03025602479
-0.03436088365
-0.03749554329
-0.04190157036
-0.005796891448
0.0002366678698
-0.1617290422
-0.155899401
27277.31203
27481.30928
27671.27058
27840.61071
27985.76857
28106.43673
28204.35496
28282.29445
28343.35681
28390.5548
28426.59741
28453.80617
28474.10738
28489.06345
28499.92076
28507.66117
28513.05063
28516.68194
28519.01079
28520.38544
28521.07046
28521.26577
28521.12148
28520.74956
28520.23289
28519.63224
28518.99166
28518.34263
28517.70722
28517.10052
28516.53248
28516.00933
28515.5346
28515.10998
28514.73589
28514.41193
28514.13725
28513.91074
28513.73128
28513.59783
28513.50956
28513.46585
-0.02512351005
-0.03667596198
-0.05451136681
-0.06171260937
-0.004845793093
0.04778349845
-0.01435917598
-0.1888833327
27277.52771
27450.69322
27615.10506
27765.59818
27898.78383
28013.49813
28110.19637
28190.33329
28255.8625
28308.88623
28351.43799
28385.36491
28412.27726
28433.53951
28450.28447
28463.43861
28473.75114
28481.82282
28488.13224
28493.05874
28496.90188
28499.89744
28502.23064
28504.04666
28505.45915
28506.55701
28507.40966
28508.07132
28508.58428
28508.98153
28509.28877
28509.52603
28509.70888
28509.84945
28509.95712
28510.03917
28510.10119
28510.14745
28510.18117
28510.20472
28510.21973
28510.22726
-0.01971508513
-0.0383559347
-0.06689002693
-0.05865969612
0.01600989938
0.1062857361
0.1526122143
-0.01102065389
27277.54316
27428.06333
27572.84559
27707.88215
27830.26252
27938.57082
28032.59684
28112.97939
28180.87435
28237.69094
28284.90503
28323.9399
28356.09889
28382.53442
28404.24048
28422.059
28436.69375
28448.72714
28458.6377
28466.81649
28473.58189
28479.19249
28483.85797
28487.74826
28491.00104
28493.72797
28496.01965
28497.94971
28499.57807
28500.95357
28502.11608
28503.09818
28503.92651
28504.62287
28505.20504
28505.6875
28506.08197
28506.3978
28506.64235
28506.82123
28506.93849
28506.99675
-0.01221893252
-0.03256764722
-0.04980808873
-0.01423896699
0.07285063539
0.165478461
0.2476549704
0.1697278089
27276.53868
27410.65411
27540.32339
27662.81496
27775.80742
27877.92178
27968.63846
28048.11213
28116.96457
28176.0988
28226.55233
28269.39199
28305.64527
28336.26012
28362.08527
28383.8644
28402.23889
28417.75543
28430.87602
28441.98866
28451.41773
28459.43367
28466.2615
28472.08835
28477.06978
28481.33518
28484.99226
28488.13081
28490.82574
28493.13963
28495.12484
28496.82514
28498.27717
28499.51154
28500.55374
28501.42492
28502.14247
28502.72052
28503.1703
28503.50047
28503.71735
28503.82505
-0.009056518244
-0.01200602885
-0.005332274637
0.05206380725
0.1381256166
0.2065000453
0.253877389
0.2540663261
27276.42184
27397.32199
27514.97517
27627.2423
27732.22631
27828.66725
27915.92101
27993.86499
28062.77267
28123.18761
28175.8141
28221.43131
28260.83109
28294.77659
28323.97718
28349.07554
28370.64304
28389.1807
28405.12333
28418.84541
28430.66772
28440.86394
28449.66701
28457.27486
28463.85554
28469.55169
28474.48441
28478.75654
28482.45546
28485.65542
28488.41954
28490.80143
28492.84656
28494.59345
28496.07455
28497.31706
28498.34358
28499.1726
28499.81895
28500.29412
28500.6065
28500.76161
-0.02024257046
0.01768824761
0.04335251181
0.1060593235
0.1759990981
0.2221307162
0.2299832448
0.2569918838
27276.35956
27386.93145
27495.01101
27598.94972
27697.18536
27788.59752
27872.51162
27948.65311
28017.07305
28078.06486
28132.08553
28179.68866
28221.47196
28258.03883
28289.97227
28317.81849
28342.078
28363.202
28381.59218
28397.60293
28411.54476
28423.68833
28434.26872
28443.48953
28451.52682
28458.53264
28464.63817
28469.95651
28474.58517
28478.6081
28482.09753
28485.11552
28487.71527
28489.94222
28491.83502
28493.42629
28494.74328
28495.80846
28496.63989
28497.25165
28497.65404
28497.85383
-0.04375143137
0.04364221472
0.0810740038
0.1405381616
0.1864217845
0.2213972718
0.2223663603
0.2494136863
27276.32464
27378.74911
27479.18681
27576.35814
27668.96585
27756.02406
27836.87348
27911.16185
27978.80108
28039.91316
28094.77471
28143.76628
28187.32985
28225.93524
28260.05538
28290.14899
28316.64939
28339.95803
28360.44138
28378.43032
28394.22102
28408.07689
28420.23097
28430.88869
28440.23058
28448.41489
28455.58011
28461.84719
28467.32164
28472.09531
28476.248
28479.84892
28482.95784
28485.62623
28487.89812
28489.81087
28491.3959
28492.67916
28493.68163
28494.41966
28494.90529
28495.14642
-0.06653014749
0.06633875659
0.117161856
0.1738324151
0.1962380385
0.21953923
0.2324853046
0.2533285442
27276.31614
27372.28542
27466.62866
27558.32876
27646.29438
27729.65809
27807.79532
27880.319
27947.05584
28008.01187
28063.33397
28113.27225
28158.1464
28198.31751
28234.16573
28266.07348
28294.41337
28319.5402
28341.78588
28361.45685
28378.83305
28394.16816
28407.69053
28419.60466
28430.09288
28439.31722
28447.42118
28454.53153
28460.75993
28466.20453
28470.95131
28475.07537
28478.64203
28481.70783
28484.32143
28486.52429
28488.3514
28489.83177
28490.9889
28491.84118
28492.40215
28492.68069
-0.07054277878
0.09829624379
0.1648641159
0.2174139544
0.228219833
0.2309978308
0.2478523834
0.2651181162
27276.31918
27367.19968
27456.71358
27544.03287
27628.22378
27708.51762
27784.3299
27855.2624
27921.09104
27981.74436
28037.27712
28087.84259
28133.66639
28175.02319
28212.21719
28245.56652
28275.39119
28302.00432
28325.70594
28346.77902
28365.48708
28382.0731
28396.75928
28409.74749
28421.22006
28431.34093
28440.25689
28448.09882
28454.98305
28461.01262
28466.2784
28470.86029
28474.82814
28478.24273
28481.15656
28483.61456
28485.65474
28487.30871
28488.60215
28489.55515
28490.18254
28490.49409
-0.04148521686
0.1464512613
0.22024255
0.256301046
0.258061174
0.2553775824
0.264216942
0.2794545121
27276.32742
27363.25046
27448.99322
27532.86467
27614.04952
27691.85798
27765.74364
27835.30919
27900.30127
27960.59733
28016.18761
28067.15483
28113.65375
28155.89213
28194.11389
28228.58486
28259.58126
28287.38071
28312.25535
28334.46705
28354.26404
28371.87879
28387.52695
28401.4069
28413.69989
28424.57055
28434.16762
28442.62482
28450.06188
28456.58552
28462.29045
28467.2603
28471.56858
28475.27947
28478.44861
28481.12375
28483.34539
28485.1473
28486.55694
28487.59584
28488.2799
28488.6196
0.02253379095
0.1954921396
0.2597790431
0.2793042159
0.2695765441
0.2717940238
0.2777390313
0.2866694718
27276.33514
27360.26518
27443.14438
27524.38256
27603.25112
27679.12062
27751.47704
27819.92911
27884.20728
27944.15599
27999.72124
28050.93557
28097.90197
28140.77814
28179.7619
28215.07836
28246.96898
28275.68263
28301.46848
28324.57064
28345.22408
28363.65196
28380.06374
28394.6542
28407.60302
28419.07476
28429.2192
28438.17197
28446.05516
28452.97819
28459.03862
28464.32296
28468.9075
28472.85906
28476.23574
28479.08753
28481.45689
28483.37927
28484.88358
28485.99248
28486.72274
28487.08539
0.1127184066
0.2313723823
0.2716368379
0.2717519048
0.2625364163
0.2707679129
0.2835155325
0.285374856
27276.33461
27358.12033
27438.9368
27518.26971
27595.45136
27669.89595
27741.11444
27808.72266
27872.4426
27932.09805
27987.60585
28038.96442
28086.24072
28129.55695
28169.0777
28204.99828
28237.53431
28266.91304
28293.36608
28317.12373
28338.41054
28357.4421
28374.42274
28389.54409
28402.98419
28414.90722
28425.46347
28434.78971
28443.00962
28450.23451
28456.56394
28462.08648
28466.88045
28471.01462
28474.54888
28477.53484
28480.01646
28482.03044
28483.60674
28484.7689
28485.53429
28485.91441
0.2204019439
0.236657571