/*--------------------------------*- C++ -*----------------------------------*\
  =========                 |
  \\      /  F ield         | OpenFOAM: The Open Source CFD Toolbox
   \\    /   O peration     | Website:  https://openfoam.org
    \\  /    A nd           | Version:  6
     \\/     M anipulation  |
\*---------------------------------------------------------------------------*/
FoamFile
{
    version     2.0;
    format      ascii;
    class       surfaceScalarField;
    location    "0.09";
    object      phi;
}
// * * * * * * * * * * * * * * * * * * * * * * * * * * * * * * * * * * * * * //

dimensions      [0 3 -1 0 0 0 0];

internalField   nonuniform List<scalar> 
4900
(
-3.755462745e-08
-9.089516809e-08
1.008959278e-08
-4.764422027e-08
2.864409252e-08
-1.85544998e-08
3.247840032e-08
-3.834307776e-09
2.710143524e-08
5.376965104e-09
1.435891664e-08
1.274251857e-08
1.066661945e-09
1.329225469e-08
-9.505064921e-17
1.066662103e-09
-7.94909575e-21
4.603295264e-24
-7.881700079e-21
-6.73956707e-23
-7.748117741e-21
-1.335848323e-22
-7.553412798e-21
-1.947105533e-22
-7.304290139e-21
-2.491311978e-22
-7.008778278e-21
-2.955232502e-22
-6.675732843e-21
-3.330596379e-22
-6.314318387e-21
-3.61431446e-22
-5.933537552e-21
-3.808005798e-22
-5.541845493e-21
-3.91714524e-22
-5.146866522e-21
-3.950041175e-22
-4.75521427e-21
-3.916800325e-22
-4.372405718e-21
-3.828389207e-22
-4.002852945e-21
-3.695856762e-22
-3.649913891e-21
-3.529744337e-22
-3.315983625e-21
-3.33968062e-22
-3.002609688e-21
-3.134140842e-22
-2.710618096e-21
-2.920340242e-22
-2.440239817e-21
-2.704229241e-22
-2.191230637e-21
-2.490559653e-22
-1.962979922e-21
-2.282995626e-22
-1.75460592e-21
-2.08424834e-22
-1.565036773e-21
-1.89621882e-22
-1.393077529e-21
-1.720137979e-22
-1.237464126e-21
-1.556696914e-22
-1.096905708e-21
-1.406163539e-22
-9.701168172e-22
-1.268483854e-22
-8.558410146e-22
-1.143367666e-22
-7.528673985e-22
-1.030359589e-22
-6.600413586e-22
-9.288966943e-23
-5.76270735e-22
-8.383544739e-23
-5.005283778e-22
-7.580828177e-23
-4.318519407e-22
-6.874336855e-23
-3.69341586e-22
-6.257819878e-23
-3.121561441e-22
-5.725410373e-23
-2.595081533e-22
-5.271737525e-23
-2.106581007e-22
-4.892006458e-23
-1.649080885e-22
-4.582055618e-23
-1.215950363e-22
-4.338403295e-23
-8.008329295e-23
-4.158306549e-23
-3.975580699e-23
-4.039905416e-23
-3.982752557e-23
-8.344853078e-08
-1.317554378e-07
-4.064597872e-08
-9.044677229e-08
-1.448715272e-08
-4.47133258e-08
-2.972504108e-09
-1.534895637e-08
6.383668244e-10
1.766094213e-09
-3.566954669e-10
1.37375809e-08
-8.433058109e-10
1.377886501e-08
-6.247715019e-18
2.2335614e-10
-8.018904817e-21
1.536843736e-24
-7.947865203e-21
-1.384402687e-22
-7.809235218e-21
-2.722252576e-22
-7.607826824e-21
-3.961347656e-22
-7.350678052e-21
-5.063009098e-22
-7.046313114e-21
-5.999141594e-22
-6.704105453e-21
-6.752982467e-22
-6.333690249e-21
-7.31882516e-22
-5.944455641e-21
-7.700759082e-22
-5.545140131e-21
-7.910755375e-22
-5.143547911e-21
-7.966465427e-22
-4.746378675e-21
-7.889040878e-22
-4.359157737e-21
-7.701191966e-22
-3.98624651e-21
-7.425606573e-22
-3.63091175e-21
-7.083772536e-22
-3.295433249e-21
-6.695188155e-22
-2.981232598e-21
-6.276910559e-22
-2.689009367e-21
-5.843375187e-22
-2.418874687e-21
-5.406416781e-22
-2.170475586e-21
-4.975428116e-22
-1.943106141e-21
-4.557602848e-22
-1.735803581e-21
-4.158220563e-22
-1.547429031e-21
-3.780943294e-22
-1.376733554e-21
-3.428102572e-22
-1.222410759e-21
-3.100963955e-22
-1.083137592e-21
-2.799962002e-22
-9.576049684e-22
-2.524902972e-22
-8.445399234e-22
-2.275135466e-22
-7.42720795e-22
-2.049691045e-22
-6.509868098e-22
-1.847397884e-22
-5.682432438e-22
-1.666970969e-22
-4.934631506e-22
-1.507082399e-22
-4.256864764e-22
-1.366415203e-22
-3.640172214e-22
-1.243703744e-22
-3.07619175e-22
-1.137763438e-22
-2.557106339e-22
-1.047512126e-22
-2.075584177e-22
-9.71985093e-23
-1.624714279e-22
-9.103453652e-23
-1.197939758e-22
-8.618906786e-23
-7.889925931e-23
-8.260578949e-23
-3.918425336e-23
-8.024232976e-23
-7.906840154e-23
-1.083727827e-07
-1.512268089e-07
-6.555550464e-08
-1.332640503e-07
-2.899029285e-08
-8.12785376e-08
-1.295011589e-08
-3.138913333e-08
-9.660400011e-09
-1.523621628e-09
-5.285874151e-09
9.363055107e-09
-5.401688463e-10
9.033159813e-09
2.21583819e-17
-3.168126658e-10
-8.157603984e-21
-7.239350641e-25
-8.081621786e-21
-2.144265478e-22
-7.933125384e-21
-4.207303568e-22
-7.717978928e-21
-6.112945663e-22
-7.444282923e-21
-7.800147088e-22
-7.121694347e-21
-9.225249142e-22
-6.760691763e-21
-1.036327349e-21
-6.37188962e-21
-1.120715467e-21
-5.965464089e-21
-1.176536484e-21
-5.550721704e-21
-1.20585714e-21
-5.135816804e-21
-1.211594765e-21
-4.727605122e-21
-1.197163121e-21
-4.331609937e-21
-1.166165678e-21
-3.952072852e-21
-1.122152896e-21
-3.592061839e-21
-1.068447182e-21
-3.253612706e-21
-1.008030526e-21
-2.937884978e-21
-9.434849174e-22
-2.645318223e-21
-8.769738533e-22
-2.375779418e-21
-8.102533948e-22
-2.1286957e-21
-7.447026516e-22
-1.903169745e-21
-6.813654521e-22
-1.698077021e-21
-6.20996954e-22
-1.512145593e-21
-5.641107633e-22
-1.344019911e-21
-5.110236461e-22
-1.192310468e-21
-4.618961087e-22
-1.055631365e-21
-4.167680016e-22
-9.326277349e-22
-3.755889118e-22
-8.219948965e-22
-3.382435158e-22
-7.224908374e-22
-3.045722973e-22
-6.329434553e-22
-2.743881629e-22
-5.522537292e-22
-2.474895284e-22
-4.793957991e-22
-2.236704424e-22
-4.134147389e-22
-2.027282726e-22
-3.534226502e-22
-1.844694274e-22
-2.98593562e-22
-1.687135201e-22
-2.481575125e-22
-1.552963259e-22
-2.013940941e-22
-1.440718182e-22
-1.576256779e-22
-1.349135213e-22
-1.162104857e-22
-1.277153578e-22
-7.653564807e-23
-1.223921048e-22
-3.801020935e-23
-1.18879474e-22
-1.171337741e-22
-1.168857902e-07
-1.512303406e-07
-8.695164089e-08
-1.631981996e-07
-4.451204427e-08
-1.237181342e-07
-1.365871286e-08
-6.224246474e-08
-5.564542132e-09
-9.617792344e-09
-2.763947431e-09
6.562460403e-09
2.320704681e-10
6.037141941e-09
2.360172604e-17
-8.4742172e-11
-8.37217597e-21
-4.576093093e-25
-8.287894677e-21
-2.987118567e-22
-8.123659106e-21
-5.849744707e-22
-7.886677251e-21
-8.482895342e-22
-7.586780641e-21
-1.079928815e-21
-7.235493244e-21
-1.27383413e-21
-6.845084106e-21
-1.426762584e-21
-6.427720958e-21
-1.538108943e-21
-5.994799316e-21
-1.609492631e-21
-5.556476385e-21
-1.644218692e-21
-5.121403165e-21
-1.646710653e-21
-4.696625421e-21
-1.621987505e-21
-4.287613758e-21
-1.575227872e-21
-3.898382042e-21
-1.511438946e-21
-3.531658087e-21
-1.435229181e-21
-3.189077912e-21
-1.350672357e-21
-2.871382692e-21
-1.2612453e-21
-2.578604659e-21
-1.169820448e-21
-2.310233893e-21
-1.078696008e-21
-2.065362277e-21
-9.896492828e-22
-1.842803815e-21
-9.040019748e-22
-1.641192415e-21
-8.226893371e-22
-1.459059279e-21
-7.463276751e-22
-1.294892573e-21
-6.752767914e-22
-1.14718211e-21
-6.096955414e-22
-1.014451699e-21
-5.495897754e-22
-8.952815421e-22
-4.948526879e-22
-7.883227433e-22
-4.452980507e-22
-6.923056958e-22
-4.006870569e-22
-6.060437916e-22
-3.607496128e-22
-5.284336305e-22
-3.252009255e-22
-4.584526619e-22
-2.937541931e-22
-3.951549922e-22
-2.661301253e-22
-3.376659222e-22
-2.420639358e-22
-2.85175638e-22
-2.213103522e-22
-2.369323727e-22
-2.036471018e-22
-1.922352671e-22
-1.888772505e-22
-1.504270884e-22
-1.768306957e-22
-1.108869114e-22
-1.673650523e-22
-7.302279896e-23
-1.603661081e-22
-3.626439981e-23
-1.557479885e-22
-1.534532081e-22
-1.115459654e-07
-1.352491039e-07
-1.009091342e-07
-1.738350308e-07
-6.463964711e-08
-1.599876213e-07
-2.248100739e-08
-1.044011045e-07
-1.557704515e-10
-3.194302927e-08
3.903245233e-10
6.016365426e-09
2.073163734e-10
6.22015009e-09
-1.626303259e-18
1.225742279e-10
-8.67048995e-21
1.250201586e-26
-8.57411083e-21
-3.950949901e-22
-8.386930576e-21
-7.721632568e-22
-8.118286255e-21
-1.116946952e-21
-7.780669742e-21
-1.417562804e-21
-7.388418662e-21
-1.666107003e-21
-6.956438545e-21
-1.858768767e-21
-6.49912115e-21
-1.995456631e-21
-6.029547473e-21
-2.079100773e-21
-5.55899342e-21
-2.114811322e-21
-5.096705892e-21
-2.109040801e-21
-4.649890809e-21
-2.068849175e-21
-4.223847863e-21
-2.001321291e-21
-3.822192637e-21
-1.913148446e-21
-3.447118641e-21
-1.810361156e-21
-3.099665213e-21
-1.698187371e-21
-2.779969329e-21
-1.581006273e-21
-2.487489104e-21
-1.462369156e-21
-2.221193776e-21
-1.345063102e-21
-1.979719645e-21
-1.231198343e-21
-1.761494259e-21
-1.122305333e-21
-1.564832553e-21
-1.019431935e-21
-1.388009191e-21
-9.232347175e-22
-1.229311354e-21
-8.340609693e-22
-1.087075811e-21
-7.520199515e-22
-9.597136814e-22
-6.77043163e-22
-8.457257119e-22
-6.089341692e-22
-7.437104e-22
-5.474089885e-22
-6.523668285e-22
-4.921282278e-22
-5.704936711e-22
-4.42722201e-22
-4.969855024e-22
-3.988102132e-22
-4.308272708e-22
-3.600150878e-22
-3.710875769e-22
-3.259738814e-22
-3.169112277e-22
-2.96345601e-22
-2.675114034e-22
-2.708166001e-22
-2.221616712e-22
-2.491042188e-22
-1.801880006e-22
-2.309591203e-22
-1.409608742e-22
-2.161666888e-22
-1.03887538e-22
-2.045477751e-22
-6.840439203e-23
-1.959590128e-22
-3.396947632e-23
-1.902928864e-22
-1.874777153e-22
-9.621263119e-08
-1.08220444e-07
-1.049220913e-07
-1.651255706e-07
-8.323556142e-08
-1.816741512e-07
-4.276231281e-08
-1.448743531e-07
-6.052765086e-09
-6.865257699e-08
2.292887207e-09
-2.329286886e-09
-1.788642684e-10
8.691901542e-09
-2.602085214e-17
-5.62900494e-11
-9.064625726e-21
-7.90300984e-25
-8.951109083e-21
-5.086156484e-22
-8.73165491e-21
-9.916259633e-22
-8.418862606e-21
-1.429752356e-21
-8.029194885e-21
-1.807248004e-21
-7.58107995e-21
-2.114243735e-21
-7.093141033e-21
-2.346733755e-21
-6.58279081e-21
-2.505837153e-21
-6.065290254e-21
-2.596635802e-21
-5.553258171e-21
-2.626881988e-21
-5.056549667e-21
-2.605791932e-21
-4.582396362e-21
-2.543049075e-21
-4.135705156e-21
-2.44806298e-21
-3.719431476e-21
-2.329476408e-21
-3.334966745e-21
-2.194883875e-21
-2.982501867e-21
-2.050713846e-21
-2.661346145e-21
-1.902227095e-21
-2.3701936e-21
-1.753590196e-21
-2.107336669e-21
-1.607991808e-21
-1.870831874e-21
-1.467778078e-21
-1.658624145e-21
-1.334591044e-21
-1.468637073e-21
-1.209499908e-21
-1.298835991e-21
-1.093119492e-21
-1.147269995e-21
-9.857133165e-22
-1.012098042e-21
-8.872807829e-22
-8.916032691e-22
-7.976292046e-22
-7.841988355e-22
-7.164321253e-22
-6.88427792e-22
-6.432756687e-22
-6.029588992e-22
-5.776947307e-22
-5.265797984e-22
-5.19200743e-22
-4.58188563e-22
-4.673025779e-22
-3.967843602e-22
-4.215219637e-22
-3.414577288e-22
-3.814045848e-22
-2.91380814e-22
-3.465278411e-22
-2.457977759e-22
-3.165060708e-22
-2.040155e-22
-2.90993888e-22
-1.653946737e-22
-2.696881539e-22
-1.293412438e-22
-2.523289926e-22
-9.529823839e-23
-2.387001736e-22
-6.273790733e-23
-2.286291081e-22
-3.115412638e-23
-2.219866545e-22
-2.186868815e-22
-7.561775951e-08
-7.558611186e-08
-1.005042406e-07
-1.402390895e-07
-9.603176884e-08
-1.86146623e-07
-6.358173066e-08
-1.773243913e-07
-2.14183326e-08
-1.10815975e-07
7.292033004e-10
-2.447682282e-08
-5.295584852e-10
9.950663297e-09
-2.167726719e-17
-5.858485826e-10
-9.571766382e-21
-3.961323498e-24
-9.434024412e-21
-6.463616366e-22
-9.169702644e-21
-1.255956267e-21
-8.796308926e-21
-1.803159176e-21
-8.336170575e-21
-2.26740384e-21
-7.813575533e-21
-2.636860581e-21
-7.252269798e-21
-2.908065569e-21
-6.673628174e-21
-3.084509086e-21
-6.095582479e-21
-3.17471598e-21
-5.532216495e-21
-3.190286568e-21
-4.993853828e-21
-3.144197239e-21
-4.487453459e-21
-3.049496054e-21
-4.01715654e-21
-2.918410396e-21
-3.584871074e-21
-2.761816171e-21
-3.190823013e-21
-2.588989941e-21
-2.834035944e-21
-2.407562529e-21
-2.512725187e-21
-2.223602968e-21
-2.224606943e-21
-2.041776953e-21
-1.96713115e-21
-1.865539395e-21
-1.737650188e-21
-1.697334001e-21
-1.533536085e-21
-1.53878315e-21
-1.352257977e-21
-1.390858938e-21
-1.191429814e-21
-1.254031367e-21
-1.0488365e-21
-1.128393003e-21
-9.224448328e-22
-1.013761349e-21
-8.104041221e-22
-9.097612058e-22
-7.11040055e-22
-8.158897365e-22
-6.228444126e-22
-7.315669696e-22
-5.444624573e-22
-6.561743179e-22
-4.74679243e-22
-5.890834205e-22
-4.124056783e-22
-5.296772938e-22
-3.566648692e-22
-4.773654677e-22
-3.065790575e-22
-4.315944903e-22
-2.613573175e-22
-3.918549281e-22
-2.20284078e-22
-3.576857642e-22
-1.82708467e-22
-3.286769135e-22
-1.480344316e-22
-3.04470417e-22
-1.157115622e-22
-2.84760756e-22
-8.522652746e-23
-2.692946208e-22
-5.609502422e-23
-2.578703945e-22
-2.785413888e-23
-2.503375456e-22
-2.465960702e-22
-5.243568053e-08
-4.306337115e-08
-8.885628006e-08
-1.038184899e-07
-1.02149522e-07
-1.728533811e-07
-8.239009013e-08
-1.970838231e-07
-4.100045814e-08
-1.52205607e-07
-6.18486726e-09
-5.929241371e-08
-1.01053414e-09
4.776330146e-09
1.307818871e-18
-1.596382757e-09
-1.021541152e-20
-1.029515889e-23
-1.004348929e-20
-8.182878888e-22
-9.716802816e-21
-1.582651275e-21
-9.260494454e-21
-2.259480645e-21
-8.705609966e-21
-2.822305819e-21
-8.084797915e-21
-3.257694442e-21
-7.428755872e-21
-3.564133701e-21
-6.763893005e-21
-3.74940227e-21
-6.11121789e-21
-3.827425589e-21
-5.48619236e-21
-3.815350705e-21
-4.899213745e-21
-3.731218508e-21
-4.356422155e-21
-3.592334268e-21
-3.86060868e-21
-3.414274383e-21
-3.412082987e-21
-3.210396178e-21
-3.00942594e-21
-2.991705009e-21
-2.650099709e-21
-2.76695039e-21
-2.330916446e-21
-2.542851367e-21
-2.048381604e-21
-2.324380326e-21
-1.79893387e-21
-2.115058944e-21
-1.5791042e-21
-1.91723865e-21
-1.385614225e-21
-1.732351148e-21
-1.215430871e-21
-1.561123235e-21
-1.065790541e-21
-1.40375543e-21
-9.342029721e-22
-1.260066966e-21
-8.184421774e-22
-1.129611065e-21
-7.165297551e-22
-1.011764941e-21
-6.26714197e-22
-9.057988611e-22
-5.474486207e-22
-8.109282268e-22
-4.773684764e-22
-7.263521167e-22
-4.152701653e-22
-6.512812175e-22
-3.60091086e-22
-5.84957547e-22
-3.108913457e-22
-5.266679257e-22
-2.668371911e-22
-4.757527613e-22
-2.271861039e-22
-4.316113847e-22
-1.912734381e-22
-3.937049063e-22
-1.585004435e-22
-3.615573444e-22
-1.283235045e-22
-3.347556055e-22
-1.002444192e-22
-3.129487565e-22
-7.380154883e-23
-2.958469244e-22
-4.856167541e-23
-2.832200716e-22
-2.411241412e-23
-2.748968328e-22
-2.707635445e-22
-2.846025501e-08
-1.676007823e-08
-7.001491939e-08
-6.226382557e-08
-9.970644441e-08
-1.43161856e-07
-9.627507836e-08
-2.005151891e-07
-5.981867521e-08
-1.886620101e-07
-1.586159554e-08
-1.032494934e-07
-8.412855041e-10
-1.024397991e-08
9.540979118e-18
-2.437668242e-09
-1.102861947e-20
-1.693876313e-23
-1.080766429e-20
-1.039247093e-21
-1.039349992e-20
-1.996824189e-21
-9.823252462e-21
-2.829741213e-21
-9.140990958e-21
-3.504584819e-21
-8.39127597e-21
-4.007431247e-21
-7.614093966e-21
-4.3413418e-21
-6.842001967e-21
-4.521524596e-21
-6.099233135e-21
-4.570228926e-21
-5.402146631e-21
-4.512475828e-21
-4.760407346e-21
-4.373000459e-21
-4.17842903e-21
-4.174359221e-21
-3.656785485e-21
-3.935968455e-21
-3.193435556e-21
-3.673800435e-21
-2.784704912e-21
-3.400493691e-21
-2.426025547e-21
-3.125691404e-21
-2.112463015e-21
-2.856479051e-21
-1.839071983e-21
-2.597839908e-21
-1.601120737e-21
-2.353082023e-21
-1.394220336e-21
-2.12421405e-21
-1.214387317e-21
-1.91226221e-21
-1.058062166e-21
-1.717529349e-21
-9.220998466e-22
-1.539801504e-21
-8.0374396e-22
-1.378509268e-21
-7.005924069e-22
-1.232851561e-21
-6.105597548e-22
-1.101888927e-21
-5.318395603e-22
-9.846126441e-22
-4.628685659e-22
-8.799949243e-22
-4.02293789e-22
-7.870245705e-22
-3.489429304e-22
-7.047315842e-22
-3.017981681e-22
-6.322035056e-22
-2.599731791e-22
-5.685956547e-22
-2.226931211e-22
-5.13136958e-22
-1.892772464e-22
-4.65132651e-22
-1.591238114e-22
-4.239648395e-22
-1.316969504e-22
-3.890916635e-22
-1.065152067e-22
-3.600456202e-22
-8.314143725e-23
-3.364314624e-22
-6.117383946e-23
-3.179239765e-22
-4.023786845e-23
-3.042658669e-22
-1.99788426e-23
-2.95265905e-22
-2.907974574e-22
-6.874318778e-09
-1.730679456e-09
-4.468150859e-08
-2.445663577e-08
-8.656786148e-08
-1.012755032e-07
-1.019225285e-07
-1.851605221e-07
-7.689768144e-08
-2.136868571e-07
-2.815970117e-08
-1.519874736e-07
4.577458587e-10
-3.886142695e-08
-6.064755902e-18
-1.979922333e-09
-1.205956226e-20
-2.800251957e-23
-1.176496529e-20
-1.333848083e-21
-1.122624993e-20
-2.535548093e-21
-1.049802641e-20
-3.557977852e-21
-9.64385256e-21
-4.358776168e-21
-8.725262401e-21
-4.926043229e-21
-7.794387855e-21
-5.272242449e-21
-6.890831276e-21
-5.425111511e-21
-6.04160362e-21
-5.419491096e-21
-5.262783978e-21
-5.2913341e-21
-4.561863148e-21
-5.073963967e-21
-3.9401181e-21
-4.796150919e-21
-3.394680645e-21
-4.48145645e-21
-2.920177023e-21
-4.148358401e-21
-2.509938052e-21
-3.810790714e-21
-2.156838114e-21
-3.478853006e-21
-1.853840416e-21
-3.159541919e-21
-1.594324146e-21
-2.857424745e-21
-1.3722579e-21
-2.57522012e-21
-1.182270015e-21
-2.314276953e-21
-1.019653391e-21
-2.074956897e-21
-8.80331478e-22
-1.856932244e-21
-7.608036097e-22
-1.659413147e-21
-6.580815588e-22
-1.481317755e-21
-5.696247325e-22
-1.321397351e-21
-4.932783356e-22
-1.17832668e-21
-4.27216787e-22
-1.050767802e-21
-3.698933642e-22
-9.374140717e-22
-3.199962423e-22
-8.370193909e-22
-2.7641063e-22
-7.484167265e-22
-2.381864632e-22
-6.705288905e-22
-2.045110098e-22
-6.023738699e-22
-1.746857257e-22
-5.430664026e-22
-1.481067265e-22
-4.918170634e-22
-1.242482986e-22
-4.479297872e-22
-1.026489316e-22
-4.1079851e-22
-8.289942322e-23
-3.799034207e-22
-6.463266532e-23
-3.548071776e-22
-4.751477404e-23
-3.351513428e-22
-3.123727356e-23
-3.206532122e-22
-1.551007979e-23
-3.111031655e-22
-3.063626176e-22
8.352414333e-09
2.716379484e-09
-1.609389911e-08
-1.032227799e-11
-6.258625863e-08
-5.478314368e-08
-9.648577064e-08
-1.512610101e-07
-8.955140104e-08
-2.206212267e-07
-4.391174175e-08
-1.976271329e-07
-7.403816385e-10
-8.203278704e-08
-2.016616041e-17
-2.720303936e-09
-1.337517122e-20
-1.382429141e-22
-1.296628199e-20
-1.742741337e-21
-1.224846804e-20
-3.253370595e-21
-1.129876509e-20
-4.507693914e-21
-1.021118168e-20
-5.446377089e-21
-9.071600042e-21
-6.065646694e-21
-7.947430899e-21
-6.396437702e-21
-6.885390461e-21
-6.487182292e-21
-5.91361313e-21
-6.391302949e-21
-5.045557629e-21
-6.159428241e-21
-4.284167869e-21
-5.835396416e-21
-3.625516002e-21
-5.454849449e-21
-3.06165226e-21
-5.045370746e-21
-2.582659836e-21
-4.627405184e-21
-2.178035333e-21
-4.215473285e-21
-1.837549871e-21
-3.819400147e-21
-1.551736843e-21
-3.445420134e-21
-1.312126274e-21
-3.097103898e-21
-1.111316549e-21
-2.776101714e-21
-9.429483283e-22
-2.482720209e-21
-8.016247947e-22
-2.216358512e-21
-6.828069763e-22
-1.975831064e-21
-5.827019791e-22
-1.759601938e-21
-4.981545322e-22
-1.565951658e-21
-4.265473751e-22
-1.393093491e-21
-3.657129282e-22
-1.239252502e-21
-3.138568284e-22
-1.102717533e-21
-2.694928506e-22
-9.818737948e-22
-2.31388194e-22
-8.752217668e-22
-1.985178857e-22
-7.813865857e-22
-1.700270177e-22
-6.991209977e-22
-1.451995968e-22
-6.273040738e-22
-1.234329073e-22
-5.649372735e-22
-1.042164209e-22
-5.111389841e-22
-8.711442316e-23
-4.651383256e-22
-7.175165625e-23
-4.262687772e-22
-5.780138846e-23
-3.939620012e-22
-4.497541736e-23
-3.677421265e-22
-3.30155957e-23
-3.472206596e-22
-2.16865341e-23
-3.320921386e-22
-1.076918729e-23
-3.221305988e-22
-3.171868949e-22
1.761043362e-08
2.706658372e-09
8.562365122e-09
9.037746295e-09
-3.124023305e-08
-1.498054549e-08
-7.95673e-08
-1.029339431e-07
-9.549442404e-08
-2.046941026e-07
-6.190780429e-08
-2.312137526e-07
-8.321849959e-09
-1.356187413e-07
-1.307818871e-17
-1.104215387e-08
-1.499707265e-20
-7.795780394e-23
-1.447613518e-20
-2.263682828e-21
-1.350249395e-20
-4.227020381e-21
-1.223742886e-20
-5.77277212e-21
-1.083060544e-20
-6.853218016e-21
-9.40263279e-21
-7.493641181e-21
-8.038442298e-21
-7.760654311e-21
-6.789764064e-21
-7.735890877e-21
-5.681957498e-21
-7.499144046e-21
-4.721703955e-21
-7.119720435e-21
-3.903758795e-21
-6.653384276e-21
-3.21613952e-21
-6.142515398e-21
-2.643759308e-21
-5.617801524e-21
-2.170777075e-21
-5.100441788e-21
-1.781993382e-21
-4.604315059e-21
-1.463587725e-21
-4.137867498e-21
-1.203428871e-21
-3.705644191e-21
-9.911256335e-22
-3.309475736e-21
-8.179320499e-22
-2.949367183e-21
-6.765807122e-22
-2.6241466e-21
-5.610896745e-22
-2.331927649e-21
-4.665692587e-22
-2.0704325e-21
-3.890427702e-22
-1.837212239e-21
-3.25287496e-22
-1.629793406e-21
-2.726978341e-22
-1.445772156e-21
-2.291698879e-22
-1.282871844e-21
-1.93005596e-22
-1.138975474e-21
-1.628339508e-22
-1.012141205e-21
-1.375467787e-22
-9.006066782e-22
-1.16246695e-22
-8.027862404e-22
-9.820510271e-23
-7.172638492e-22
-8.282838985e-23
-6.427835897e-22
-6.963076462e-23
-5.782391005e-22
-5.82124309e-23
-5.226627722e-22
-4.824203384e-23
-4.752152834e-22
-3.944250164e-23
-4.351758296e-22
-3.15795718e-23
-4.019332636e-22
-2.445242361e-23
-3.749782721e-22
-1.788594521e-23
-3.538966527e-22
-1.172424877e-23
-3.383637192e-22
-5.825112869e-24
-3.281398405e-22
-3.23067107e-22
2.357388162e-08
2.30058903e-09
2.34712128e-08
9.140415173e-09
2.759171281e-10
8.214750238e-09
-5.332446874e-08
-4.933355722e-08
-9.324365373e-08
-1.647749176e-07
-7.965544311e-08
-2.448019631e-07
-2.308344029e-08
-1.921907441e-07
1.707618422e-17
-3.412559413e-08
-1.723691426e-20
-1.578565581e-22
-1.64388116e-20
-3.061789506e-21
-1.504800661e-20
-5.617833926e-21
-1.331800025e-20
-7.502791603e-21
-1.147136084e-20
-8.699874938e-21
-9.670053488e-21
-9.294970375e-21
-8.014077455e-21
-9.416656468e-21
-6.553363561e-21
-9.19663513e-21
-5.302812613e-21
-8.749729534e-21
-4.255579666e-21
-8.166992041e-21
-3.393043362e-21
-7.515963289e-21
-2.691531663e-21
-6.844073782e-21
-2.126468993e-21
-6.182914772e-21
-1.674692603e-21
-5.552272562e-21
-1.315568571e-21
-4.963497187e-21
-1.031373591e-21
-4.422124186e-21
-8.072604584e-22
-3.92982254e-21
-6.310112353e-22
-3.485793574e-21
-4.927020474e-22
-3.087748272e-21
-3.843503821e-22
-2.732573334e-21
-2.995822894e-22
-2.416773857e-21
-2.333366373e-22
-2.136759189e-21
-1.816119236e-22
-1.889020783e-21
-1.412548676e-22
-1.670236954e-21
-1.097869409e-22
-1.477329104e-21
-8.526381297e-23
-1.307486385e-21
-6.616251784e-23
-1.158170438e-21
-5.129149824e-23
-1.027108009e-21
-3.971926288e-23
-9.122766718e-22
-3.071802605e-23
-8.118870673e-22
-2.371931305e-23
-7.243638405e-22
-1.827906395e-23
-6.48326661e-22
-1.405024093e-23
-5.825721442e-22
-1.076133911e-23
-5.260571475e-22
-8.199525145e-24
-4.778836771e-22
-6.197389783e-24
-4.372855041e-22
-4.622509854e-24
-4.036164949e-22
-3.36918124e-24
-3.763406168e-22
-2.351813919e-24
-3.550235533e-22
-1.499580691e-24
-3.393258551e-22
-7.519875105e-25
-3.289975578e-22
-3.238742025e-22
2.842859505e-08
2.477103533e-09
2.966683094e-08
7.902179305e-09
2.271875563e-08
1.516282561e-08
-2.153077156e-08
-5.084029993e-09
-8.10562761e-08
-1.05249413e-07
-9.426497997e-08
-2.315932592e-07
-4.374573869e-08
-2.427099854e-07
4.763035669e-17
-7.787133274e-08
-2.02874453e-20
-5.226390952e-22
-1.899421307e-20
-4.355025768e-21
-1.693287956e-20
-7.679175982e-21
-1.451551128e-20
-9.920173008e-21
-1.206709788e-20
-1.114830586e-20
-9.792397317e-21
-1.156969279e-20
-7.794629841e-21
-1.141445007e-20
-6.10691307e-21
-1.088438227e-20
-4.720412794e-21
-1.013626436e-20
-3.604788098e-21
-9.282655405e-21
-2.721311865e-21
-8.399482241e-21
-2.030471641e-21
-7.534960701e-21
-1.495883584e-21
-6.717553418e-21
-1.085944949e-21
-5.962265592e-21
-7.74203949e-22
-5.275296295e-21
-5.390679801e-22
-4.657321876e-21
-3.632200697e-22
-4.10573568e-21
-2.329503835e-22
-3.61613189e-21
-1.375096492e-22
-3.183260922e-21
-6.853296263e-23
-2.801625105e-21
-1.955008784e-23
-2.465834862e-21
1.441837016e-23
-2.1708087e-21
3.718729181e-23
-1.91187355e-21
5.166703215e-23
-1.684803203e-21
6.006846519e-23
-1.485819574e-21
6.406349673e-23
-1.311572847e-21
6.491002072e-23
-1.159110648e-21
6.35487828e-23
-1.025842572e-21
6.067821615e-23
-9.095038809e-22
5.681210041e-23
-8.081205593e-22
5.232388177e-23
-7.19976918e-22
4.748066709e-23
-6.435862863e-22
4.246924462e-23
-5.776649604e-22
3.741596142e-23
-5.211093555e-22
3.240187768e-23
-4.729761908e-22
2.747429887e-23
-4.324654821e-22
2.265553919e-23
-3.989061042e-22
1.794957909e-23
-3.717436904e-22
1.334713377e-23
-3.505306587e-22
8.829538715e-24
-3.3491818e-22
4.371775568e-24
-3.246499359e-22
-3.195575428e-22
3.364906798e-08
2.681072503e-09
3.383530445e-08
7.715942837e-09
3.428451005e-08
1.471362006e-08
9.994015052e-09
1.920646504e-08
-5.608028964e-08
-3.917510822e-08
-1.002425559e-07
-1.874309929e-07
-6.657217371e-08
-2.763803676e-07
4.016291423e-17
-1.444435063e-07
-2.444331285e-20
-1.042280997e-21
-2.231760034e-20
-6.480742303e-21
-1.917422426e-20
-1.082256062e-20
-1.574467138e-20
-1.334973902e-20
-1.248963357e-20
-1.440336118e-20
-9.638162811e-21
-1.44211854e-20
-7.265345649e-21
-1.378729337e-20
-5.359357957e-21
-1.279040033e-20
-3.867183582e-21
-1.162847329e-20
-2.721856142e-21
-1.042802152e-20
-1.856932758e-21
-9.264448353e-21
-1.213139483e-21
-8.178800681e-21
-7.406268312e-22
-7.190116668e-21
-3.989790942e-22
-6.303967734e-21
-1.562165407e-22
-5.518116968e-21
1.254021091e-23
-4.82614036e-21
1.264099427e-22
-4.219670654e-21
1.999480542e-22
-3.689738644e-21
2.441531006e-22
-3.227537897e-21
2.672826755e-22
-2.824829777e-21
2.754994311e-22
-2.474129763e-21
2.73374643e-22
-2.168764978e-21
2.642765235e-22
-1.902859292e-21
2.506674052e-22
-1.671280609e-21
2.343299498e-22
-1.469571172e-21
2.165386446e-22
-1.293872988e-21
1.981894172e-22
-1.140855122e-21
1.798973415e-22
-1.007646314e-21
1.62070114e-22
-8.917744453e-22
1.449631731e-22
-7.911132423e-22
1.287209304e-22
-7.038359877e-22
1.134075096e-22
-6.283757219e-22
9.902956469e-23
-5.633912705e-22
8.555312505e-23
-5.077384236e-22
7.291594118e-23
-4.604456208e-22
6.103644794e-23
-4.20693562e-22
4.982019032e-23
-3.877982318e-22
3.916435452e-23
-3.611969044e-22
2.896089372e-23
-3.404367647e-22
1.909862448e-23
-3.251658467e-22
9.464585831e-24
-3.151260545e-22
-3.101480801e-22
3.902467917e-08
2.708995842e-09
3.858514247e-08
8.155479547e-09
3.976254481e-08
1.353621776e-08
3.456182225e-08
2.440718762e-08
-1.677757554e-08
1.216428962e-08
-8.975005563e-08
-1.144585127e-07
-8.533485224e-08
-2.80795571e-07
1.07539303e-17
-2.297783585e-07
-3.049122538e-20
-2.23528172e-21
-2.665954911e-20
-1.031242259e-20
-2.170309979e-20
-1.577901849e-20
-1.680047749e-20
-1.825237446e-20
-1.250937636e-20
-1.869447984e-20
-9.005713953e-21
-1.792486965e-20
-6.269442605e-21
-1.652359086e-20
-4.198063779e-21
-1.486180953e-20
-2.667109152e-21
-1.315946247e-20
-1.55848847e-21
-1.153668088e-20
-7.713804745e-22
-1.005159908e-20
-2.244834714e-22
-8.725744396e-21
1.45533185e-22
-7.560183932e-21
3.869037203e-22
-6.545392685e-21
5.358018524e-22
-5.667073228e-21
6.190547262e-22
-4.909454977e-21
6.563859585e-22
-4.257067139e-21
6.621899749e-22
-3.695611314e-21
6.46898628e-22
-3.212318491e-21
6.18016043e-22
-2.796022302e-21
5.808935875e-22
-2.437085465e-21
5.393059829e-22
-2.127258454e-21
4.958774898e-22
-1.859514673e-21
4.523961274e-22
-1.627885783e-21
4.100447838e-22
-1.427308895e-21
3.695708637e-22
-1.253490528e-21
3.314105834e-22
-1.102788557e-21
2.957798387e-22
-9.721114005e-22
2.627404484e-22
-8.588328614e-22
2.322482607e-22
-7.607206931e-22
2.041879005e-22
-6.758769547e-22
1.783976806e-22
-6.026883731e-22
1.546872683e-22
-5.39785128e-22
1.328500233e-22
-4.86006701e-22
1.126714193e-22
-4.403736454e-22
9.393459112e-23
-4.020643217e-22
7.64237812e-23
-3.703958217e-22
5.99262537e-23
-3.448084413e-22
4.423310185e-23
-3.24853194e-22
2.913926304e-23
-3.101819582e-22
1.444297927e-23
-3.005399422e-22
-2.957602302e-22
4.45228671e-08
2.677454875e-09
4.446866706e-08
8.209679616e-09
4.449091901e-08
1.351396583e-08
4.79132683e-08
2.098483834e-08
2.667416832e-08
3.340338964e-08
-5.670018542e-08
-3.108415895e-08
-9.264285347e-08
-2.44852903e-07
-2.352718714e-17
-3.224212119e-07
-3.957791657e-20
-6.025056082e-21
-3.212987164e-20
-1.776047155e-20
-2.418125256e-20
-2.372764613e-20
-1.724667632e-20
-2.518696383e-20
-1.174266612e-20
-2.419850756e-20
-7.606291847e-21
-2.206126579e-20
-4.608761953e-21
-1.952114689e-20
-2.496318181e-21
-1.697428369e-20
-1.044618819e-21
-1.46111964e-20
-7.351470647e-23
-1.250782368e-20
5.544686107e-22
-1.067962514e-20
9.411244417e-22
-9.112446946e-21
1.160395805e-21
-7.779505911e-21
1.265301953e-21
-6.650353257e-21
1.293497407e-21
-5.69532682e-21
1.271514021e-21
-4.887533343e-21
1.217905604e-21
-4.203523985e-21
1.145538612e-21
-3.623312986e-21
1.06324299e-21
-3.130094819e-21
9.769941181e-22
-2.709848551e-21
8.907557238e-22
-2.350925239e-21
8.070795994e-22
-2.043663421e-21
7.275316885e-22
-1.780050648e-21
6.529944792e-22
-1.553435123e-21
5.838813572e-22
-1.358284851e-21
5.202882894e-22
-1.189988933e-21
4.621008686e-22
-1.044694865e-21
4.090695368e-22
-9.191759129e-22
3.608621045e-22
-8.107232482e-22
3.171000637e-22
-7.170583036e-22
2.773833297e-22
-6.362615607e-22
2.413067271e-22
-5.667146546e-22
2.084705914e-22
-5.070532749e-22
1.784871863e-22
-4.561288313e-22
1.509841567e-22
-4.129772572e-22
1.25605889e-22
-3.767936547e-22
1.02013406e-22
-3.469117514e-22
7.988324118e-23
-3.227873536e-22
5.890561139e-23
-3.039851582e-22
3.878211343e-23
-2.901684231e-22
1.922310402e-23
-2.810911167e-22
-2.765922609e-22
5.003030013e-08
2.623067166e-09
5.042177316e-08
7.818206615e-09
5.049599675e-08
1.343974227e-08
5.38272424e-08
1.765359269e-08
5.717412228e-08
3.005650978e-08
-2.331419482e-09
2.842138282e-08
-8.322431042e-08
-1.639600119e-07
-4.92092261e-17
-4.056455223e-07
-5.281629518e-20
-1.912116777e-20
-3.81110815e-20
-3.246568927e-20
-2.565086504e-20
-3.618787114e-20
-1.626471794e-20
-3.457312407e-20
-9.609157934e-21
-3.08540851e-20
-5.06815678e-21
-2.66022888e-20
-2.062853473e-21
-2.252647635e-20
-1.336119205e-22
-1.890355563e-20
1.058675785e-21
-1.580351868e-20
1.754754117e-21
-1.320394071e-20
2.12178043e-21
-1.10466942e-20
2.274217545e-21
-9.264930787e-21
2.289696663e-21
-7.79503565e-21
2.220462791e-21
-6.581173815e-21
2.101408087e-21
-5.57633026e-21
1.95562328e-21
-4.741810295e-21
1.798200612e-21
-4.046166589e-21
1.63882687e-21
-3.464007916e-21
1.483547492e-21
-2.974887401e-21
1.33596573e-21
-2.562341919e-21
1.198057598e-21
-2.213095285e-21
1.070725626e-21
-1.916412549e-21
9.541748687e-22
-1.663583785e-21
8.481678019e-22
-1.447514615e-21
7.521965351e-22
-1.262402673e-21