/*--------------------------------*- C++ -*----------------------------------*\
  =========                 |
  \\      /  F ield         | OpenFOAM: The Open Source CFD Toolbox
   \\    /   O peration     | Website:  https://openfoam.org
    \\  /    A nd           | Version:  6
     \\/     M anipulation  |
\*---------------------------------------------------------------------------*/
FoamFile
{
    version     2.0;
    format      ascii;
    class       volScalarField;
    location    "0.09";
    object      pVap;
}
// * * * * * * * * * * * * * * * * * * * * * * * * * * * * * * * * * * * * * //

dimensions      [1 -1 -2 0 0 0 0];

internalField   nonuniform List<scalar> 
2500
(
55293.62305
55293.43171
55293.2099
55293.02772
55292.8855
55292.77359
55292.67985
55292.63445
1.074972099
1.074620842
1.074428008
1.074330172
1.074284681
1.074265153
1.074257299
1.074254284
1.074253156
1.074252738
1.074252582
1.074252523
1.074252501
1.074252493
1.07425249
1.074252489
1.074252489
1.074252489
1.074252489
1.074252489
1.074252489
1.074252489
1.074252489
1.074252489
1.074252489
1.074252489
1.074252489
1.074252489
1.074252489
1.074252489
1.074252489
1.074252489
1.074252489
1.074252489
1.074252489
1.074252489
1.074252489
1.074252489
1.074252489
1.074252489
1.074252489
1.074252489
55294.73981
55294.50661
55294.14585
55293.75333
55293.38826
55293.08876
55292.83614
55292.61777
1.076390175
1.075362045
1.074787045
1.074492129
1.074353487
1.074293118
1.074268365
1.074258615
1.074254849
1.074253399
1.074252839
1.074252622
1.074252538
1.074252507
1.074252495
1.074252491
1.074252489
1.074252489
1.074252489
1.074252489
1.074252489
1.074252489
1.074252489
1.074252489
1.074252489
1.074252489
1.074252489
1.074252489
1.074252489
1.074252489
1.074252489
1.074252489
1.074252489
1.074252489
1.074252489
1.074252489
1.074252489
1.074252489
1.074252489
1.074252489
1.074252489
1.074252489
55295.37952
55295.18849
55294.83327
55294.3591
55293.85337
55293.40083
55292.99944
55292.6154
1.077870944
1.076148421
1.075181489
1.074679557
1.074438848
1.07433093
1.074284865
1.074265754
1.074257909
1.074254691
1.074253371
1.074252834
1.07425262
1.074252537
1.074252506
1.074252494
1.074252491
1.074252489
1.074252489
1.074252489
1.074252489
1.074252489
1.074252489
1.074252489
1.074252489
1.074252489
1.074252489
1.074252489
1.074252489
1.074252489
1.074252489
1.074252489
1.074252489
1.074252489
1.074252489
1.074252489
1.074252489
1.074252489
1.074252489
1.074252489
1.074252489
1.074252489
55295.79885
55295.65554
55295.35782
55294.89798
55294.31445
55293.72852
55293.1751
55292.62047
1.079531338
1.077059824
1.075666797
1.074929949
1.074564746
1.074392966
1.074314864
1.074279945
1.074264435
1.074257589
1.074254607
1.074253338
1.074252816
1.07425261
1.074252532
1.074252503
1.074252493
1.07425249
1.074252489
1.074252489
1.074252489
1.074252489
1.074252489
1.074252489
1.074252489
1.074252489
1.074252489
1.074252489
1.074252489
1.074252489
1.074252489
1.074252489
1.074252489
1.074252489
1.074252489
1.074252489
1.074252489
1.074252489
1.074252489
1.074252489
1.074252489
1.074252489
55296.10565
55296.00257
55295.76528
55295.36003
55294.76481
55294.06241
55293.35922
55292.63726
1.081560201
1.078251962
1.076358969
1.075323981
1.074783592
1.074510996
1.074376347
1.07431071
1.074279155
1.074264302
1.074257519
1.074254539
1.074253287
1.074252786
1.074252594
1.074252524
1.0742525
1.074252492
1.07425249
1.074252489
1.074252489
1.074252489
1.074252489
1.074252489
1.074252489
1.074252489
1.074252489
1.074252489
1.074252489
1.074252489
1.074252489
1.074252489
1.074252489
1.074252489
1.074252489
1.074252489
1.074252489
1.074252489
1.074252489
1.074252489
1.074252489
1.074252489
55296.34918
55296.28045
55296.09614
55295.74502
55295.17624
55294.39249
55293.55048
55292.65693
1.084338171
1.080050178
1.077508045
1.076038623
1.0752114
1.074755661
1.074509372
1.074379269
1.0743126
1.07427974
1.074264265
1.074257333
1.074254385
1.074253195
1.07425274
1.074252574
1.074252516
1.074252497
1.074252491
1.07425249
1.074252489
1.074252489
1.074252489
1.074252489
1.074252489
1.074252489
1.074252489
1.074252489
1.074252489
1.074252489
1.074252489
1.074252489
1.074252489
1.074252489
1.074252489
1.074252489
1.074252489
1.074252489
1.074252489
1.074252489
1.074252489
1.074252489
55296.55498
55296.5179
55296.3847
55296.08801
55295.55626
55294.74191
55293.74769
55292.67332
1.088681026
1.083153033
1.07965533
1.077458669
1.076100571
1.075280372
1.074800676
1.074531403
1.074387406
1.074314419
1.074279449
1.074263623
1.074256855
1.074254117
1.074253067
1.074252685
1.074252552
1.074252508
1.074252495
1.07425249
1.074252489
1.074252489
1.074252489
1.074252489
1.074252489
1.074252489
1.074252489
1.074252489
1.074252489
1.074252489
1.074252489
1.074252489
1.074252489
1.074252489
1.074252489
1.074252489
1.074252489
1.074252489
1.074252489
1.074252489
1.074252489
1.074252489
55296.73863
55296.73124
55296.65113
55296.41545
55295.93189
55295.11098
55293.9702
55292.69436
1.096340614
1.089051002
1.083953958
1.080400662
1.077983699
1.076406807
1.075430988
1.074861941
1.074550204
1.0743899
1.074312469
1.074277283
1.074262211
1.074256111
1.074253773
1.074252923
1.074252629
1.074252532
1.074252502
1.074252492
1.07425249
1.074252489
1.074252489
1.074252489
1.074252489
1.074252489
1.074252489
1.074252489
1.074252489
1.074252489
1.074252489
1.074252489
1.074252489
1.074252489
1.074252489
1.074252489
1.074252489
1.074252489
1.074252489
1.074252489
1.074252489
1.074252489
55296.91208
55296.93035
55296.90558
55296.74185
55296.32746
55295.52903
55294.26105
55292.72998
1.111061905
1.100878454
1.092801982
1.086544043
1.081944241
1.078782708
1.076760943
1.075558622
1.074892687
1.074548322
1.074381599
1.074305809
1.074273367
1.074260255
1.074255238
1.074253417
1.074252788
1.074252581
1.074252516
1.074252497
1.074252491
1.074252489
1.074252489
1.074252489
1.074252489
1.074252489
1.074252489
1.074252489
1.074252489
1.074252489
1.074252489
1.074252489
1.074252489
1.074252489
1.074252489
1.074252489
1.074252489
1.074252489
1.074252489
1.074252489
1.074252489
1.074252489
55297.08696
55297.12237
55297.15099
55297.06882
55296.74496
55296.00733
55294.65683
55292.78376
1.140556234
1.125077783
1.111057
1.099231439
1.090102572
1.083657196
1.079477492
1.076975462
1.075586327
1.074867948
1.074520579
1.074362969
1.074295654
1.074268511
1.074258149
1.074254396
1.074253103
1.074252678
1.074252545
1.074252505
1.074252493
1.07425249
1.074252489
1.074252489
1.074252489
1.074252489
1.074252489
1.074252489
1.074252489
1.074252489
1.074252489
1.074252489
1.074252489
1.074252489
1.074252489
1.074252489
1.074252489
1.074252489
1.074252489
1.074252489
1.074252489
1.074252489
55297.27467
55297.31487
55297.38678
55297.3912
55297.17637
55296.53463
55295.16189
55293.00764
1.200871787
1.174844071
1.148395875
1.124931813
1.106456993
1.093335567
1.084827067
1.079746395
1.076935048
1.075486374
1.074788336
1.074472683
1.07433829
1.074284257
1.074263687
1.074256254
1.074253698
1.074252861
1.074252598
1.07425252
1.074252497
1.074252491
1.074252489
1.074252489
1.074252489
1.074252489
1.074252489
1.074252489
1.074252489
1.074252489
1.074252489
1.074252489
1.074252489
1.074252489
1.074252489
1.074252489
1.074252489
1.074252489
1.074252489
1.074252489
1.074252489
1.074252489
55297.47577
55297.51973
55297.61334
55297.70242
55297.61335
55297.10269
55295.76923
55295.22211
1.327083375
1.277798012
1.224119405
1.175958102
1.138314962
1.111896394
1.094961406
1.084946291
1.079447441
1.076631604
1.07528178
1.074674041
1.074416263
1.074312964
1.074273755
1.074259623
1.074254776
1.074253191
1.074252695
1.074252547
1.074252505
1.074252493
1.07425249
1.074252489
1.074252489
1.074252489
1.074252489
1.074252489
1.074252489
1.074252489
1.074252489
1.074252489
1.074252489
1.074252489
1.074252489
1.074252489
1.074252489
1.074252489
1.074252489
1.074252489
1.074252489
1.074252489
55297.69168
55297.73452
55297.83919
55297.99836
55298.05046
55297.71343
55296.49502
55295.19381
1.601959346
1.494992209
1.377843734
1.275820183
1.198775922
1.146293509
1.113416044
1.09429608
1.0839234
1.078657806
1.07615009
1.075026812
1.074552361
1.074362912
1.074291222
1.074265454
1.074256637
1.07425376
1.074252862
1.074252594
1.074252517
1.074252496
1.074252491
1.074252489
1.074252489
1.074252489
1.074252489
1.074252489
1.074252489
1.074252489
1.074252489
1.074252489
1.074252489
1.074252489
1.074252489
1.074252489
1.074252489
1.074252489
1.074252489
1.074252489
1.074252489
1.074252489
55297.9247
55297.96887
55298.0817
55298.27765
55298.48294
55298.36947
55297.36993
55294.12908
2.247224489
1.975293951
1.696388128
1.470848943
1.311316273
1.208067439
1.145734677
1.110390997
1.09153867
1.082076911
1.077606474
1.07561572
1.07477869
1.074445705
1.074320096
1.074275069
1.074259699
1.074254694
1.074253135
1.074252671
1.074252538
1.074252502
1.074252492
1.07425249
1.074252489
1.074252489
1.074252489
1.074252489
1.074252489
1.074252489
1.074252489
1.074252489
1.074252489
1.074252489
1.074252489
1.074252489
1.074252489
1.074252489
1.074252489
1.074252489
1.074252489
1.074252489
55298.17478
55298.22214
55298.34301
55298.57214
55298.90314
55299.06532
55298.41516
55295.20445
3.965607043
3.13398602
2.389774998
1.858106438
1.518987154
1.316131036
1.20025448
1.136907865
1.103896002
1.087570191
1.079930388
1.076550704
1.075136607
1.074576208
1.074365482
1.074290146
1.074264491
1.074256153
1.074253562
1.07425279
1.07425257
1.07425251
1.074252494
1.07425249
1.074252489
1.074252489
1.074252489
1.074252489
1.074252489
1.074252489
1.074252489
1.074252489
1.074252489
1.074252489
1.074252489
1.074252489
1.074252489
1.074252489
1.074252489
1.074252489
1.074252489
1.074252489
55298.44137
55298.49319
55298.62649
55298.88156
55299.30086
55299.77602
55299.61514
55296.84906
9.421487181
6.309292415
4.02587872
2.657315621
1.904030011
1.50153527
1.289073112
1.178720832
1.122996936
1.095957745
1.083450873
1.077959428
1.075673689
1.074771405
1.074433183
1.074312585
1.074271607
1.074258315
1.074254192
1.074252967
1.074252618
1.074252522
1.074252497
1.074252491
1.074252489
1.074252489
1.074252489
1.074252489
1.074252489
1.074252489
1.074252489
1.074252489
1.074252489
1.074252489
1.074252489
1.074252489
1.074252489
1.074252489
1.074252489
1.074252489
1.074252489
1.074252489
55298.72253
55298.78029
55298.93131
55299.22104
55299.71649
55300.44613
55300.90355
55299.06601
30.16751985
16.32550424
8.287969083
4.401361269
2.630221413
1.815640957
1.429162629
1.241818069
1.151078353
1.108102315
1.088501752
1.079968624
1.076436514
1.07504776
1.074528782
1.074344199
1.074281615
1.074261352
1.074255077
1.074253215
1.074252685
1.07425254
1.074252502
1.074252492
1.07425249
1.074252489
1.074252489
1.074252489
1.074252489
1.074252489
1.074252489
1.074252489
1.074252489
1.074252489
1.074252489
1.074252489
1.074252489
1.074252489
1.074252489
1.074252489
1.074252489
1.074252489
55299.01408
55299.08004
55299.25417
55299.59197
55300.16311
55301.0609
55302.17506
55301.59008
116.8644918
51.0498041
20.34711926
8.424835208
4.029747131
2.342944435
1.643292859
1.332843676
1.190257089
1.12473105
1.095344053
1.082672909
1.077458849
1.075416967
1.074656183
1.074386242
1.074294899
1.074265376
1.074256247
1.074253542
1.074252773
1.074252563
1.074252507
1.074252493
1.07425249
1.074252489
1.074252489
1.074252489
1.074252489
1.074252489
1.074252489
1.074252489
1.074252489
1.074252489
1.074252489
1.074252489
1.074252489
1.074252489
1.074252489
1.074252489
1.074252489
1.074252489
55299.30921
55299.38597
55299.58983
55299.99173
55300.67663
55301.757
55303.30676
55304.05073
455.1493362
169.7261023
55.18030307
17.96172726
6.756723003
3.21652645
1.959571406
1.457974945
1.241940504
1.146177928
1.104061082
1.086094067
1.078746536
1.075880581
1.074815784
1.074438809
1.074311482
1.074270392
1.074257703
1.074253948
1.074252882
1.074252591
1.074252514
1.074252495
1.07425249
1.074252489
1.074252489
1.074252489
1.074252489
1.074252489
1.074252489
1.074252489
1.074252489
1.074252489
1.074252489
1.074252489
1.074252489
1.074252489
1.074252489
1.074252489
1.074252489
1.074252489
55299.59837
55299.68786
55299.92651
55300.40082
55301.21763
55302.48129
55304.31105
55306.15975
1505.691153
521.2520504
148.8148329
39.91099542
11.97062
4.62296096
2.406843567
1.620748598
1.30600858
1.172081781
1.114446108
1.090139533
1.080262497
1.076424784
1.075002721
1.074500272
1.074330841
1.074276241
1.0742594
1.074254422
1.074253009
1.074252624
1.074252523
1.074252497
1.074252491
1.074252489
1.074252489
1.074252489
1.074252489
1.074252489
1.074252489
1.074252489
1.074252489
1.074252489
1.074252489
1.074252489
1.074252489
1.074252489
1.074252489
1.074252489
1.074252489
1.074252489
55299.86997
55299.97343
55300.25049
55300.80404
55301.7661
55303.25216
55305.33173
55307.792
3881.77182
1340.760739
362.7487462
85.60980068
21.30633638
6.76205798
3.001801663
1.818611978
1.379886281
1.201117747
1.12591766
1.094574074
1.081917078
1.077017122
1.075205792
1.074566936
1.074351812
1.074282569
1.074261234
1.074254933
1.074253146
1.074252659
1.074252531
1.074252499
1.074252491
1.074252489
1.074252489
1.074252489
1.074252489
1.074252489
1.074252489
1.074252489
1.074252489
1.074252489
1.074252489
1.074252489
1.074252489
1.074252489
1.074252489
1.074252489
1.074252489
1.074252489
55300.111
55300.22883
55300.54525
55301.17975
55302.28402
55303.98426
55306.23575
55308.9728
7750.901808
2779.991808
752.1929551
166.034408
36.10379295
9.713780341
3.725631232
2.038790628
1.457822861
1.230881832
1.137505864
1.099020328
1.083569311
1.077607162
1.07540773
1.07463314
1.074372616
1.074288841
1.07426305
1.074255438
1.074253282
1.074252694
1.07425254
1.074252501
1.074252492
1.074252489
1.074252489
1.074252489
1.074252489
1.074252489
1.074252489
1.074252489
1.074252489
1.074252489
1.074252489
1.074252489
1.074252489
1.074252489
1.074252489
1.074252489
1.074252489
1.074252489
55300.30802
55300.43932
55300.79247
55301.50236
55302.73444
55304.61348
55307.00236
55309.77715
12394.76475
4664.995759
1294.741254
278.8006381
55.62071286
13.21771328
4.497847036
2.255641759
1.530907285
1.258061412
1.14794644
1.102999344
1.085042677
1.078132229
1.075587179
1.074691909
1.074391067
1.074294399
1.074264659
1.074255886
1.074253402
1.074252725
1.074252548
1.074252503
1.074252492
1.07425249
1.074252489
1.074252489
1.074252489
1.074252489
1.074252489
1.074252489
1.074252489
1.074252489
1.074252489
1.074252489
1.074252489
1.074252489
1.074252489
1.074252489
1.074252489
1.074252489
55300.44834
55300.5906
55300.97364
55301.74547
55303.08282
55305.09875
55307.59914
55310.27473
16522.19231
6470.853327
1847.307102
396.4066245
75.386434
16.52341948
5.170409772
2.432979834
1.588354575
1.278969049
1.155890629
1.106010661
1.086154618
1.078527863
1.07572225
1.07473611
1.074404935
1.074298575
1.074265866
1.074256222
1.074253491
1.074252748
1.074252554
1.074252504
1.074252492
1.07425249
1.074252489
1.074252489
1.074252489
1.074252489
1.074252489
1.074252489
1.074252489
1.074252489
1.074252489
1.074252489
1.074252489
1.074252489
1.074252489
1.074252489
1.074252489
1.074252489
55300.52162
55300.67029
55301.07086
55301.87951
55303.28104
55305.37529
55307.96894
55310.51516
18929.38304
7576.148187
2200.256217
473.1942149
88.15067193
18.57477726
5.567818394
2.533641519
1.620134818
1.290372955
1.160192942
1.107635791
1.086753635
1.078740782
1.075794895
1.074759871
1.074412387
1.074300818
1.074266515
1.074256402
1.07425354
1.074252761
1.074252557
1.074252505
1.074252493
1.07425249
1.074252489
1.074252489
1.074252489
1.074252489
1.074252489
1.074252489
1.074252489
1.074252489
1.074252489
1.074252489
1.074252489
1.074252489
1.074252489
1.074252489
1.074252489
1.074252489
55300.52162
55300.67028
55301.07086
55301.87951
55303.28104
55305.37529
55307.96894
55310.51526
18929.38322
7576.14812
2200.256198
473.1942112
88.15067141
18.57477719
5.567818382
2.533641516
1.620134817
1.290372955
1.160192942
1.107635791
1.086753635
1.078740782
1.075794895
1.074759871
1.074412387
1.074300818
1.074266515
1.074256402
1.07425354
1.074252761
1.074252557
1.074252505
1.074252493
1.07425249
1.074252489
1.074252489
1.074252489
1.074252489
1.074252489
1.074252489
1.074252489
1.074252489
1.074252489
1.074252489
1.074252489
1.074252489
1.074252489
1.074252489
1.074252489
1.074252489
55300.44834
55300.5906
55300.97364
55301.74547
55303.08282
55305.09875
55307.59914
55310.27533
16522.19308
6470.853159
1847.307057
396.4066164
75.38643286
16.52341932
5.170409746
2.432979828
1.588354573
1.278969049
1.155890629
1.106010661
1.086154618
1.078527863
1.07572225
1.07473611
1.074404935
1.074298575
1.074265866
1.074256222
1.074253491
1.074252748
1.074252554
1.074252504
1.074252492
1.07425249
1.074252489
1.074252489
1.074252489
1.074252489
1.074252489
1.074252489
1.074252489
1.074252489
1.074252489
1.074252489
1.074252489
1.074252489
1.074252489
1.074252489
1.074252489
1.074252489
55300.30802
55300.43932
55300.79247
55301.50236
55302.73444
55304.61348
55307.00236
55309.77832
12394.7658
4664.995589
1294.741215
278.8006316
55.620712
13.21771316
4.497847016
2.255641755
1.530907284
1.258061412
1.14794644
1.102999344
1.085042677
1.078132229
1.075587179
1.074691909
1.074391067
1.074294399
1.074264659
1.074255886
1.074253402
1.074252725
1.074252548
1.074252503
1.074252492
1.07425249
1.074252489
1.074252489
1.074252489
1.074252489
1.074252489
1.074252489
1.074252489
1.074252489
1.074252489
1.074252489
1.074252489
1.074252489
1.074252489
1.074252489
1.074252489
1.074252489
55300.111
55300.22883
55300.54525
55301.17975
55302.28402
55303.98426
55306.23575
55308.97441
7750.902392
2779.991738
752.1929427
166.0344065
36.10379282
9.713780335
3.725631233
2.038790629
1.457822861
1.230881832
1.137505864
1.099020328
1.083569311
1.077607162
1.07540773
1.07463314
1.074372616
1.074288841
1.07426305
1.074255438
1.074253282
1.074252694
1.07425254
1.074252501
1.074252492
1.074252489
1.074252489
1.074252489
1.074252489
1.074252489
1.074252489
1.074252489
1.074252489
1.074252489
1.074252489
1.074252489
1.074252489
1.074252489
1.074252489
1.074252489
1.074252489
1.074252489
55299.86997
55299.97343
55300.25049
55300.80404
55301.7661
55303.25216
55305.33173
55307.79382
3881.771701
1340.76077
362.7487552
85.60980269
21.30633679
6.762058069
3.001801686
1.818611986
1.379886284
1.201117748
1.12591766
1.094574075
1.081917078
1.077017122
1.075205792
1.074566936
1.074351812
1.074282569
1.074261234
1.074254933
1.074253146
1.074252659
1.074252531
1.074252499
1.074252491
1.074252489
1.074252489
1.074252489
1.074252489
1.074252489
1.074252489
1.074252489
1.074252489
1.074252489
1.074252489
1.074252489
1.074252489
1.074252489
1.074252489
1.074252489
1.074252489
1.074252489
55299.59837
55299.68786
55299.92651
55300.40082
55301.21763
55302.48129
55304.31105
55306.16206
1505.690832
521.2521052
148.8148455
39.91099797
11.97062052
4.622961085
2.406843602
1.62074861
1.306008584
1.172081783
1.114446109
1.090139534
1.080262497
1.076424784
1.075002721
1.074500272
1.074330841
1.074276241
1.0742594
1.074254422
1.074253009
1.074252624
1.074252523
1.074252497
1.074252491
1.074252489
1.074252489
1.074252489
1.074252489
1.074252489
1.074252489
1.074252489
1.074252489
1.074252489
1.074252489
1.074252489
1.074252489
1.074252489
1.074252489
1.074252489
1.074252489
1.074252489
55299.30921
55299.38597
55299.58983
55299.99173
55300.67663
55301.757
55303.30676
55304.05074
455.1492915
169.7261308
55.1803102
17.96172892
6.756723408
3.216526563
1.959571442
1.457974958
1.241940509
1.14617793
1.104061082
1.086094067
1.078746536
1.075880581
1.074815784
1.074438809
1.074311482
1.074270392
1.074257703
1.074253948
1.074252882
1.074252591
1.074252514
1.074252495
1.07425249
1.074252489
1.074252489
1.074252489
1.074252489
1.074252489
1.074252489
1.074252489
1.074252489
1.074252489
1.074252489
1.074252489
1.074252489
1.074252489
1.074252489
1.074252489
1.074252489
1.074252489
55299.01408
55299.08004
55299.25417
55299.59197
55300.16311
55301.0609
55302.17506
55301.58774
116.8645075
51.04981329
20.34712209
8.424836029
4.029747378
2.342944517
1.643292889
1.332843688
1.190257094
1.124731052
1.095344054
1.082672909
1.077458849
1.075416967
1.074656183
1.074386242
1.074294899
1.074265376
1.074256247
1.074253542
1.074252773
1.074252563
1.074252507
1.074252493
1.07425249
1.074252489
1.074252489
1.074252489
1.074252489
1.074252489
1.074252489
1.074252489
1.074252489
1.074252489
1.074252489
1.074252489
1.074252489
1.074252489
1.074252489
1.074252489
1.074252489
1.074252489
55298.72253
55298.78029
55298.9313
55299.22104
55299.71649
55300.44613
55300.90355
55299.06188
30.16752474
16.32550671
8.287970057
4.401361629
2.630221547
1.81564101
1.42916265
1.241818078
1.151078357
1.108102316
1.088501753
1.079968624
1.076436515
1.07504776
1.074528782
1.074344199
1.074281615
1.074261352
1.074255077
1.074253215
1.074252685
1.07425254
1.074252502
1.074252492
1.07425249
1.074252489
1.074252489
1.074252489
1.074252489
1.074252489
1.074252489
1.074252489
1.074252489
1.074252489
1.074252489
1.074252489
1.074252489
1.074252489
1.074252489
1.074252489
1.074252489
1.074252489
55298.44136
55298.49319
55298.62649
55298.88156
55299.30086
55299.77602
55299.61514
55296.8476
9.421488334
6.309293082
4.02587905
2.657315773
1.904030079
1.501535301
1.289073125
1.178720838
1.122996938
1.095957746
1.083450874
1.077959428
1.075673689
1.074771405
1.074433183
1.074312585
1.074271607
1.074258315
1.074254192
1.074252967
1.074252618
1.074252522
1.074252497
1.074252491
1.074252489
1.074252489
1.074252489
1.074252489
1.074252489
1.074252489
1.074252489
1.074252489
1.074252489
1.074252489
1.074252489
1.074252489
1.074252489
1.074252489
1.074252489
1.074252489
1.074252489
1.074252489
55298.17477
55298.22214
55298.34301
55298.57214
55298.90314
55299.06532
55298.41516
55295.20645
3.965607322
3.133986206
2.389775113
1.858106502
1.518987187
1.316131052
1.200254488
1.136907868
1.103896004
1.087570191
1.079930389
1.076550704
1.075136607
1.074576208
1.074365482
1.074290146
1.074264491
1.074256153
1.074253562
1.07425279
1.07425257
1.07425251
1.074252494
1.07425249
1.074252489
1.074252489
1.074252489
1.074252489
1.074252489
1.074252489
1.074252489
1.074252489
1.074252489
1.074252489
1.074252489
1.074252489
1.074252489
1.074252489
1.074252489
1.074252489
1.074252489
1.074252489
55297.9247
55297.96887
55298.0817
55298.27765
55298.48294
55298.36947
55297.36993
55294.1142
2.24722457
1.975294007
1.696388169
1.470848969
1.311316288
1.208067447
1.145734681
1.110390999
1.091538671
1.082076911
1.077606474
1.07561572
1.07477869
1.074445705
1.074320096
1.074275069
1.074259699
1.074254694
1.074253135
1.074252671
1.074252538
1.074252502
1.074252492
1.07425249
1.074252489
1.074252489
1.074252489
1.074252489
1.074252489
1.074252489
1.074252489
1.074252489
1.074252489
1.074252489
1.074252489
1.074252489
1.074252489
1.074252489
1.074252489
1.074252489
1.074252489
1.074252489
55297.69168
55297.73452
55297.83919
55297.99836
55298.05046
55297.71343
55296.49503
55295.11496
1.601959396
1.494992228
1.377843748
1.275820192
1.198775927
1.146293512
1.113416046
1.094296081
1.0839234
1.078657806
1.07615009
1.075026812
1.074552361
1.074362912
1.074291222
1.074265454
1.074256637
1.07425376
1.074252862
1.074252594
1.074252517
1.074252496
1.074252491
1.074252489
1.074252489
1.074252489
1.074252489
1.074252489
1.074252489
1.074252489
1.074252489
1.074252489
1.074252489
1.074252489
1.074252489
1.074252489
1.074252489
1.074252489
1.074252489
1.074252489
1.074252489
1.074252489
55297.47577
55297.51973
55297.61334
55297.70242
55297.61335
55297.10269
55295.76923
55295.13311
1.327083414
1.277798014
1.224119407
1.175958104
1.138314964
1.111896396
1.094961407
1.084946291
1.079447441
1.076631604
1.07528178
1.074674041
1.074416263
1.074312965
1.074273755
1.074259623
1.074254776
1.074253191
1.074252695
1.074252547
1.074252505
1.074252493
1.07425249
1.074252489
1.074252489
1.074252489
1.074252489
1.074252489
1.074252489
1.074252489
1.074252489
1.074252489
1.074252489
1.074252489
1.074252489
1.074252489
1.074252489
1.074252489
1.074252489
1.074252489
1.074252489
1.074252489
55297.27467
55297.31487
55297.38678
55297.3912
55297.17637
55296.53463
55295.16189
55293.0243
1.200871803
1.174844066
1.148395872
1.124931812
1.106456992
1.093335567
1.084827067
1.079746395
1.076935048
1.075486374
1.074788336
1.074472683
1.07433829
1.074284257
1.074263687
1.074256254
1.074253698
1.074252861
1.074252598
1.07425252
1.074252497
1.074252491
1.074252489
1.074252489
1.074252489
1.074252489
1.074252489
1.074252489
1.074252489
1.074252489
1.074252489
1.074252489
1.074252489
1.074252489
1.074252489
1.074252489
1.074252489
1.074252489
1.074252489
1.074252489
1.074252489
1.074252489
55297.08696
55297.12237
55297.15099
55297.06882
55296.74496
55296.00733
55294.65683
55292.7919
1.140556224
1.125077775
1.111056996
1.099231437
1.090102571
1.083657196
1.079477492
1.076975462
1.075586327
1.074867948
1.074520579
1.074362969
1.074295654
1.074268511
1.074258149
1.074254396
1.074253103
1.074252678
1.074252545
1.074252505
1.074252493
1.07425249
1.074252489
1.074252489
1.074252489
1.074252489
1.074252489
1.074252489
1.074252489
1.074252489
1.074252489
1.074252489
1.074252489
1.074252489
1.074252489
1.074252489
1.074252489
1.074252489
1.074252489
1.074252489
1.074252489
1.074252489
55296.91208
55296.93035
55296.90559
55296.74185
55296.32746
55295.52902
55294.26105
55292.73133
1.111061891
1.100878447
1.092801978
1.086544041
1.08194424
1.078782708
1.076760943
1.075558622
1.074892687
1.074548322
1.074381599
1.074305809
1.074273367
1.074260255
1.074255238
1.074253417
1.074252788
1.074252581
1.074252516
1.074252497
1.074252491
1.074252489
1.074252489
1.074252489
1.074252489
1.074252489
1.074252489
1.074252489
1.074252489
1.074252489
1.074252489
1.074252489
1.074252489
1.074252489
1.074252489
1.074252489
1.074252489
1.074252489
1.074252489
1.074252489
1.074252489
1.074252489
55296.73863
55296.73124
55296.65113
55296.41545
55295.93189
55295.11097
55293.9702
55292.69156
1.0963406
1.089050996
1.083953955
1.08040066
1.077983698
1.076406807
1.075430988
1.074861941
1.074550204
1.0743899
1.074312469
1.074277283
1.074262211
1.074256111
1.074253773
1.074252923
1.074252629
1.074252532
1.074252502
1.074252492
1.07425249
1.074252489
1.074252489
1.074252489
1.074252489
1.074252489
1.074252489
1.074252489
1.074252489
1.074252489
1.074252489
1.074252489
1.074252489
1.074252489
1.074252489
1.074252489
1.074252489
1.074252489
1.074252489
1.074252489
1.074252489
1.074252489
55296.55498
55296.5179
55296.3847
55296.08801
55295.55626
55294.7419
55293.74769
55292.66517
1.088681007
1.083153028
1.079655327
1.077458667
1.076100571
1.075280372
1.074800676
1.074531402
1.074387406
1.074314419
1.074279449
1.074263623
1.074256855
1.074254117
1.074253067
1.074252685
1.074252552
1.074252508
1.074252495
1.07425249
1.074252489
1.074252489
1.074252489
1.074252489
1.074252489
1.074252489
1.074252489
1.074252489
1.074252489
1.074252489
1.074252489
1.074252489
1.074252489
1.074252489
1.074252489
1.074252489
1.074252489
1.074252489
1.074252489
1.074252489
1.074252489
1.074252489
55296.34918
55296.28045
55296.09613
55295.74502
55295.17624
55294.39249
55293.55048
55292.64641
1.08433815
1.080050174
1.077508043
1.076038622
1.0752114
1.074755661
1.074509372
1.074379269
1.0743126
1.07427974
1.074264265
1.074257333
1.074254385
1.074253195
1.07425274
1.074252574
1.074252516
1.074252497
1.074252491
1.07425249
1.074252489
1.074252489
1.074252489
1.074252489
1.074252489
1.074252489
1.074252489
1.074252489
1.074252489
1.074252489
1.074252489
1.074252489
1.074252489
1.074252489
1.074252489
1.074252489
1.074252489
1.074252489
1.074252489
1.074252489
1.074252489
1.074252489
55296.10565
55296.00257
55295.76528
55295.36003
55294.76481
55294.0624
55293.35922
55292.63354
1.08156019
1.078251959
1.076358967
1.07532398
1.074783592
1.074510996
1.074376347
1.07431071
1.074279155
1.074264302
1.074257519
1.074254539
1.074253287
1.074252786
1.074252594
1.074252524
1.0742525
1.074252492
1.07425249
1.074252489
1.074252489
1.074252489
1.074252489
1.074252489
1.074252489
1.074252489
1.074252489
1.074252489
1.074252489
1.074252489
1.074252489
1.074252489
1.074252489
1.074252489
1.074252489
1.074252489
1.074252489
1.074252489
1.074252489
1.074252489
1.074252489
1.074252489
55295.79885
55295.65554
55295.35782
55294.89798
55294.31445
55293.72852
55293.1751
55292.62735
1.079531342
1.077059822
1.075666796
1.074929949
1.074564746
1.074392966
1.074314864
1.074279945
1.074264435
1.074257589
1.074254607
1.074253338
1.074252816
1.07425261
1.074252532
1.074252503
1.074252493
1.07425249
1.074252489
1.074252489
1.074252489
1.074252489
1.074252489
1.074252489
1.074252489
1.074252489
1.074252489
1.074252489
1.074252489
1.074252489
1.074252489
1.074252489
1.074252489
1.074252489
1.074252489
1.074252489
1.074252489
1.074252489
1.074252489
1.074252489
1.074252489
1.074252489
55295.37952
55295.18848
55294.83327
55294.3591
55293.85336
55293.40083
55292.99944
55292.62116
1.077870948
1.076148419
1.075181488
1.074679557
1.074438848
1.07433093
1.074284865
1.074265754
1.074257909
1.074254691
1.074253371
1.074252834
1.07425262
1.074252537
1.074252506
1.074252494
1.074252491
1.074252489
1.074252489
1.074252489
1.074252489
1.074252489
1.074252489
1.074252489
1.074252489
1.074252489
1.074252489
1.074252489
1.074252489
1.074252489
1.074252489
1.074252489
1.074252489
1.074252489
1.074252489
1.074252489
1.074252489
1.074252489
1.074252489
1.074252489
1.074252489
1.074252489
55294.73981
55294.50661
55294.14584
55293.75333
55293.38826
55293.08876
55292.83614
55292.61216
1.076390168
1.075362044
1.074787045
1.074492129
1.074353487
1.074293118
1.074268365
1.074258615
1.074254849
1.074253399
1.074252839
1.074252622
1.074252538
1.074252507
1.074252495
1.074252491
1.074252489
1.074252489
1.074252489
1.074252489
1.074252489
1.074252489
1.074252489
1.074252489
1.074252489
1.074252489
1.074252489
1.074252489
1.074252489
1.074252489
1.074252489
1.074252489
1.074252489
1.074252489
1.074252489
1.074252489
1.074252489
1.074252489
1.074252489
1.074252489
1.074252489
1.074252489
55293.62305
55293.43171
55293.20989
55293.02772
55292.8855
55292.77359
55292.67985
55292.5947