/*--------------------------------*- C++ -*----------------------------------*\
  =========                 |
  \\      /  F ield         | OpenFOAM: The Open Source CFD Toolbox
   \\    /   O peration     | Website:  https://openfoam.org
    \\  /    A nd           | Version:  6
     \\/     M anipulation  |
\*---------------------------------------------------------------------------*/
FoamFile
{
    version     2.0;
    format      ascii;
    class       volScalarField;
    location    "0.09";
    object      Temperature;
}
// * * * * * * * * * * * * * * * * * * * * * * * * * * * * * * * * * * * * * //

dimensions      [0 0 0 1 0 0 0];

internalField   nonuniform List<scalar> 
2500
(
314.6514575
311.8298047
308.6189233
306.0304508
304.0389534
302.4901469
301.2047522
300.0454247
300.0167141
300.008559
300.0040799
300.0018064
300.0007489
300.0002947
300.000112
300.0000418
300.0000155
300.0000058
300.0000022
300.0000008
300.0000003
300.0000001
300
300
300
300
300
300
300
300
300
300
300
300
300
300
300
300
300
300
300
300
300
300
300
300
300
300
300
300
332.2129011
328.3904079
322.6428406
316.6106173
311.1978183
306.8932896
303.3536442
300.1292142
300.0496281
300.0257745
300.0124239
300.0055722
300.0023494
300.0009455
300.0003696
300.0001427
300.000055
300.0000212
300.0000082
300.0000031
300.0000012
300.0000004
300.0000001
300
300
300
300
300
300
300
300
300
300
300
300
300
300
300
300
300
300
300
300
300
300
300
300
300
300
300
343.1831894
339.8361348
333.779085
326.0179212
318.1255079
311.379958
305.6314942
300.2176723
300.0839612
300.0440295
300.0215884
300.0099296
300.0043349
300.0018253
300.0007536
300.0003089
300.0001262
300.0000513
300.0000205
300.000008
300.000003
300.0000011
300.0000004
300.0000001
300
300
300
300
300
300
300
300
300
300
300
300
300
300
300
300
300
300
300
300
300
300
300
300
300
300
350.7733239
348.1439736
342.802587
334.8643223
325.3017299
316.2330775
308.1196939
300.315585
300.1224152
300.0651748
300.0328607
300.0157499
300.0072629
300.0032686
300.0014518
300.0006392
300.0002782
300.0001188
300.0000493
300.0000198
300.0000076
300.0000028
300.000001
300.0000003
300.0000001
300
300
300
300
300
300
300
300
300
300
300
300
300
300
300
300
300
300
300
300
300
300
300
300
300
356.5412673
354.5828381
350.1527343
342.8362198
332.6269058
321.3336886
310.7706135
300.4254847
300.1693363
300.0928124
300.0489312
300.0249067
300.0123515
300.0060141
300.0028824
300.0013552
300.0006208
300.0002751
300.0001172
300.0000478
300.0000186
300.0000069
300.0000025
300.0000008
300.0000003
300.0000001
300
300
300
300
300
300
300
300
300
300
300
300
300
300
300
300
300
300
300
300
300
300
300
300
361.2562424
359.9127091
356.3568467
349.7738259
339.6117052
326.5394719
313.5718913
300.5554651
300.2334638
300.1344541
300.0755911
300.0415063
300.0222957
300.0117039
300.0059769
300.0029505
300.0013993
300.0006345
300.0002742
300.0001128
300.0000442
300.0000165
300.0000058
300.000002
300.0000006
300.0000002
300.0000001
300
300
300
300
300
300
300
300
300
300
300
300
300
300
300
300
300
300
300
300
300
300
300
365.3395775
364.5964879
361.9516547
356.1973621
346.3308629
332.239216
316.5142496
300.7249885
300.3334435
300.2061713
300.1253454
300.0744614
300.0429514
300.0239011
300.0127515
300.0064897
300.00314
300.0014417
300.0006277
300.0002593
300.0001017
300.0000379
300.0000135
300.0000046
300.0000015
300.0000005
300.0000001
300
300
300
300
300
300
300
300
300
300
300
300
300
300
300
300
300
300
300
300
300
300
300
369.0626747
368.9108833
367.2770803
362.5559231
353.2420052
338.48111
319.9040473
300.9802272
300.5089773
300.3420164
300.2246934
300.1426151
300.0866453
300.0500658
300.027403
300.0141769
300.0069275
300.0031982
300.0013964
300.0005774
300.0002264
300.0000844
300.0000299
300.0000101
300.0000033
300.000001
300.0000003
300.0000001
300
300
300
300
300
300
300
300
300
300
300
300
300
300
300
300
300
300
300
300
300
300
372.6494425
373.0312811
372.5126664
369.1258165
360.825951
345.8435435
324.4465704
301.4203464
300.8434831
300.6125758
300.4281369
300.2844192
300.1783235
300.1051716
300.0582902
300.0303707
300.0148927
300.0068841
300.0030053
300.0012414
300.0004862
300.0001809
300.0000641
300.0000216
300.000007
300.0000022
300.0000006
300.0000002
300
300
300
300
300
300
300
300
300
300
300
300
300
300
300
300
300
300
300
300
300
300
376.3367915
377.0926783
377.7052231
375.9502022
369.1912951
354.6688233
330.8380107
302.2277783
301.5026643
301.1586347
300.8435326
300.5751407
300.3662721
300.2178998
300.1212741
300.0632733
300.0310166
300.0143185
300.0062392
300.0025719
300.0010051
300.0003732
300.0001319
300.0000444
300.0000143
300.0000044
300.0000013
300.0000004
300.0000001
300
300
300
300
300
300
300
300
300
300
300
300
300
300
300
300
300
300
300
300
300
380.37691
381.2533148
382.8315925
382.9291706
378.2513413
364.9328891
339.3675497
303.7185115
302.8075235
302.2514374
301.6756869
301.1555146
300.7394952
300.440452
300.2449063
300.12751
300.0623397
300.0286959
300.0124679
300.0051251
300.0019976
300.0007398
300.0002608
300.0000877
300.0000282
300.0000087
300.0000026
300.0000007
300.0000002
300.0000001
300
300
300
300
300
300
300
300
300
300
300
300
300
300
300
300
300
300
300
300
384.8027671
385.7836327
387.889122
389.9155272
387.8912514
376.6744086
350.2231378
306.5191186
305.3702346
304.3948759
303.2962101
302.2756971
301.4534424
300.8626564
300.4777068
300.2476731
300.1205952
300.0552997
300.0239421
300.0098101
300.0038125
300.0014082
300.0004953
300.0001662
300.0000533
300.0000164
300.0000048
300.0000014
300.0000004
300.0000001
300
300
300
300
300
300
300
300
300
300
300
300
300
300
300
300
300
300
300
300
389.6709427
390.6511444
393.0661167
396.7986217
398.0374678
390.1698159
364.1415503
311.7958059
310.3166359
308.4826182
306.3445027
304.3555091
302.7636989
301.6297292
300.8970223
300.4625118
300.2240906
300.1023061
300.0441206
300.0180153
300.0069797
300.0025709
300.0009021
300.000302
300.0000967
300.0000296
300.0000087
300.0000025
300.0000007
300.0000002
300
300
300
300
300
300
300
300
300
300
300
300
300
300
300
300
300
300
300
300
395.0656794
396.104622
398.7831302
403.5221333
408.6120534
405.7859656
382.4635046
321.6571862
319.6244947
316.0131636
311.854386
308.054366
305.0624674
302.9603336
301.6175312
300.8287489
300.399343
300.181453
300.0779315
300.0317067
300.0122454
300.004498
300.0015743
300.000526
300.000168
300.0000514
300.0000151
300.0000042
300.0000012
300.0000003
300.0000001
300
300
300
300
300
300
300
300
300
300
300
300
300
300
300
300
300
300
300
401.0237113
402.1721184
405.1325942
410.8651811
419.4398978
423.7767228
406.9231806
339.659501
336.5624378
329.3318002
321.3776859
314.3301277
308.9047353
305.1574243
302.7954109
301.4225511
300.6815456
300.3081676
300.1317994
300.0534292
300.02057
300.0075351
300.0026309
300.0008771
300.0002796
300.0000854
300.000025
300.000007
300.0000019
300.0000005
300.0000001
300
300
300
300
300
300
300
300
300
300
300
300
300
300
300
300
300
300
300
407.5762146
408.8746567
412.2524099
418.873562
430.2329346
443.876068
439.1658144
371.2432675
366.1190531
351.8055319
337.0397289
324.446736
315.0013294
308.5997756
304.6221168
302.3357895
301.1125812
300.5006047
300.2132134
300.0861258
300.0330564
300.0120768
300.0042069
300.0013995
300.0004454
300.0001358
300.0000397
300.0000112
300.000003
300.0000008
300.0000002
300
300
300
300
300
300
300
300
300
300
300
300
300
300
300
300
300
300
300
414.7225836
416.2216129
420.1921302
428.0257788
442.1200423
464.6547274
479.9981238
423.6425293
415.1447136
387.753176
361.4225095
339.8735354
324.1492968
313.6996452
307.3009445
303.664027
301.7352695
300.7770563
300.3296264
300.1326946
300.0507808
300.0185051
300.0064319
300.0021356
300.0006784
300.0002065
300.0000603
300.0000169
300.0000046
300.0000012
300.0000003
300.0000001
300
300
300
300
300
300
300
300
300
300
300
300
300
300
300
300
300
300
422.4023895
424.1789288
428.9418125
438.4932833
455.6472955
485.5045669
528.4867344
504.7449046
491.7654415
441.8943274
397.1567475
362.0197701
337.0740447
320.8155416
311.0018306
305.4844474
302.583176
301.1514927
300.4866023
300.1952561
300.074517
300.0270906
300.0093966
300.0031144
300.0009878
300.0003002
300.0000876
300.0000245
300.0000066
300.0000017
300.0000004
300.0000001
300
300
300
300
300
300
300
300
300
300
300
300
300
300
300
300
300
300
430.4713957
432.6202559
438.4327917
450.3623651
472.2609429
511.4920927
580.6926696
620.712032
603.6008419
518.1224235
446.1519864
391.7837008
354.1802948
330.1218529
315.7965225
307.8251936
303.6668101
301.627644
300.6853974
300.274211
300.1043857
300.0378674
300.0131101
300.0043381
300.0013739
300.0004171
300.0001215
300.000034
300.0000092
300.0000024
300.0000006
300.0000001
300
300
300
300
300
300
300
300
300
300
300
300
300
300
300
300
300
300
438.6815127
441.2854967
448.3838891
463.1924407
491.1250814
541.6592754
636.4897445
772.9756219
754.5987017
617.6214709
508.5315771
428.9754518
375.2518021
341.4588895
321.5867658
310.632424
304.9591594
302.1929252
300.9205201
300.3673023
300.1395095
300.0505118
300.0174587
300.0057687
300.0018247
300.0005533
300.000161
300.000045
300.0000121
300.0000031
300.0000008
300.0000002
300
300
300
300
300
300
300
300
300
300
300
300
300
300
300
300
300
300
446.6830775
449.8078881
458.3953098
476.5738323
511.8522346
577.9354185
705.3720167
954.0537865
940.9187117
736.7435572
581.5526449
471.7800114
399.1916399
354.2110771
328.0490499
313.7461249
306.3854916
302.8142995
301.1781192
300.4690122
300.1777965
300.064268
300.0221818
300.0073203
300.002313
300.0007007
300.0002038
300.000057
300.0000153
300.000004
300.000001
300.0000002
300.0000001
300
300
300
300
300
300
300
300
300
300
300
300
300
300
300
300
300
454.0326899
457.7134159
467.8998656
489.7566957
533.0967942
617.1892355
780.1479744
1148.725406
1147.868908
865.6003111
659.0006734
516.5122167
423.9294416
367.2746607
334.6246192
316.8975928
307.8230004
303.4383934
301.4361186
300.5706431
300.2159792
300.0779641
300.0268776
300.008861
300.0027974
300.0008468
300.0002461
300.0000687
300.0000185
300.0000048
300.0000012
300.0000003
300.0000001
300
300
300
300
300
300
300
300
300
300
300
300
300
300
300
300
300
460.2218323
464.4406664
476.1806062
501.6725198
553.0590943
655.4508674
857.205668
1334.146755
1349.351539
988.3010278
731.5465187
557.9011429
446.6066432
379.1652525
340.5768879
319.7380243
309.1141852
303.9974097
301.6666933
300.6613015
300.2499865
300.0901465
300.0310498
300.0102286
300.0032269
300.0009762
300.0002835
300.0000792
300.0000213
300.0000055
300.0000014
300.0000003
300.0000001
300
300
300
300
300
300
300
300
300
300
300
300
300
300
300
300
300
464.7340178
469.3988534
482.4374962
511.0417627
569.5552155
688.3616637
928.6071344
1482.094395
1511.822518
1085.575931
788.3420617
590.0033686
464.0728815
388.2749015
345.1183896
321.8983024
310.0937009
304.420626
301.8409661
300.7297295
300.2756257
300.0993224
300.0341897
300.0112571
300.0035498
300.0010735
300.0003117
300.000087
300.0000234
300.0000061
300.0000015
300.0000004
300.0000001
300
300
300
300
300
300
300
300
300
300
300
300
300
300
300
300
300
467.1256752
472.0532093
485.8631508
516.3591906
579.3875474
708.6382238
979.1456688
1565.956901
1603.164565
1139.633599
819.6466463
607.5924632
473.600704
393.2277372
347.5812945
323.0675305
310.623027
304.6490449
301.9349295
300.7665933
300.2894286
300.1042593
300.0358783
300.01181
300.0037233
300.0011257
300.0003268
300.0000912
300.0000245
300.0000063
300.0000016
300.0000004
300.0000001
300
300
300
300
300
300
300
300
300
300
300
300
300
300
300
300
300
467.1256736
472.0532077
485.8631493
516.3591895
579.3875472
708.6382257
979.1456739
1565.956899
1603.164561
1139.633596
819.6466447
607.5924624
473.6007036
393.227737
347.5812944
323.0675305
310.623027
304.6490449
301.9349295
300.7665933
300.2894286
300.1042593
300.0358783
300.01181
300.0037233
300.0011257
300.0003268
300.0000912
300.0000245
300.0000063
300.0000016
300.0000004
300.0000001
300
300
300
300
300
300
300
300
300
300
300
300
300
300
300
300
300
464.734013
469.3988487
482.4374918
511.0417594
569.5552148
688.3616685
928.6071488
1482.094389
1511.822506
1085.575922
788.3420575
590.0033666
464.0728806
388.2749011
345.1183894
321.8983023
310.0937008
304.420626
301.8409661
300.7297295
300.2756257
300.0993224
300.0341897
300.0112571
300.0035498
300.0010735
300.0003117
300.000087
300.0000234
300.0000061
300.0000015
300.0000004
300.0000001
300
300
300
300
300
300
300
300
300
300
300
300
300
300
300
300
300
460.2218242
464.4406586
476.1805989
501.6725141
553.0590923
655.4508736
857.2056856
1334.146749
1349.351524
988.301018
731.5465142
557.9011409
446.6066423
379.1652522
340.5768878
319.7380243
309.1141851
303.9974097
301.6666933
300.6613015
300.2499865
300.0901465
300.0310498
300.0102286
300.0032269
300.0009762
300.0002835
300.0000792
300.0000213
300.0000055
300.0000014
300.0000003
300.0000001
300
300
300
300
300
300
300
300
300
300
300
300
300
300
300
300
300
454.0326787
457.7134049
467.8998554
489.7566873
533.0967897
617.1892382
780.1479847
1148.725407
1147.868898
865.6003059
659.0006714
516.5122161
423.9294414
367.2746606
334.6246192
316.8975928
307.8230004
303.4383934
301.4361186
300.5706431
300.2159792
300.0779641
300.0268776
300.008861
300.0027974
300.0008468
300.0002461
300.0000687
300.0000185
300.0000048
300.0000012
300.0000003
300.0000001
300
300
300
300
300
300
300
300
300
300
300
300
300
300
300
300
300
446.6830633
449.8078741
458.3952967
476.5738211
511.8522269
577.9354144
705.3720104
954.0537997
940.9187157
736.7435606
581.5526472
471.7800129
399.1916407
354.2110776
328.0490501
313.746125
306.3854917
302.8142995
301.1781192
300.4690122
300.1777965
300.064268
300.0221818
300.0073203
300.002313
300.0007007
300.0002038
300.000057
300.0000153
300.000004
300.000001
300.0000002
300.0000001
300
300
300
300
300
300
300
300
300
300
300
300
300
300
300
300
300
438.6814957
441.28548
448.3838733
463.1924269
491.1250705
541.6592624
636.489712
772.9756538
754.59872
617.621482
508.5315832
428.975455
375.2518038
341.4588904
321.5867662
310.6324242
304.9591595
302.1929253
300.9205202
300.3673023
300.1395095
300.0505118
300.0174587
300.0057687
300.0018247
300.0005533
300.000161
300.000045
300.0000121
300.0000031
300.0000008
300.0000002
300
300
300
300
300
300
300
300
300
300
300
300
300
300
300
300
300
300
430.4713763
432.6202369
438.4327737
450.3623492
472.2609299
511.4920762
580.6926435
620.7120641
603.600862
518.122436
446.1519936
391.7837047
354.1802969
330.121854
315.796523
307.8251938
303.6668102
301.6276441
300.6853974
300.274211
300.1043857
300.0378674
300.0131101
300.0043381
300.0013739
300.0004171
300.0001215
300.000034
300.0000092
300.0000024
300.0000006
300.0000001
300
300
300
300
300
300
300
300
300
300
300
300
300
300
300
300
300
300
422.4023686
424.1789083
428.941793
438.493266
455.6472804
485.5045489
528.4867169
504.7449175
491.7654553
441.8943372
397.1567536
362.0197737
337.0740466
320.8155426
311.0018311
305.4844476
302.5831761
301.1514927
300.4866023
300.1952561
300.074517
300.0270906
300.0093966
300.0031144
300.0009878
300.0003002
300.0000876
300.0000245
300.0000066
300.0000017
300.0000004
300.0000001
300
300
300
300
300
300
300
300
300
300
300
300
300
300
300
300
300
300
414.7225625
416.2215922
420.1921108
428.0257619
442.120027
464.6547108
479.9981109
423.6425306
415.1447216
387.7531823
361.4225138
339.873538
324.1492983
313.6996459
307.3009449
303.6640272
301.7352695
300.7770564
300.3296265
300.1326946
300.0507808
300.0185051
300.0064319
300.0021356
300.0006784
300.0002065
300.0000603
300.0000169
300.0000046
300.0000012
300.0000003
300.0000001
300
300
300
300
300
300
300
300
300
300
300
300
300
300
300
300
300
300
407.5761947
408.8746375
412.2523927
418.8735485
430.232922
443.8760571
439.1658043
371.2432671
366.1190576
351.8055355
337.0397315
324.4467377
315.0013304
308.5997762
304.6221171
302.3357897
301.1125813
300.5006047
300.2132134
300.0861258
300.0330564
300.0120768
300.0042069
300.0013995
300.0004454
300.0001358
300.0000397
300.0000112
300.000003
300.0000008
300.0000002
300
300
300
300
300
300
300
300
300
300
300
300
300
300
300
300
300
300
300
401.0236945
402.1721027
405.1325826
410.865175
419.4398969
423.7767202
406.9231779
339.659503
336.5624399
329.331802
321.3776873
314.3301286
308.9047359
305.1574246
302.795411
301.4225512
300.6815456
300.3081676
300.1317994
300.0534292
300.02057
300.0075351
300.0026309
300.0008771
300.0002796
300.0000854
300.000025
300.000007
300.0000019
300.0000005
300.0000001
300
300
300
300
300
300
300
300
300
300
300
300
300
300
300
300
300
300
300
395.0656673
396.1046125
398.7831285
403.5221416
408.6120627
405.7859733
382.4635265
321.6571866
319.6244955
316.0131644
311.8543866
308.0543664
305.0624677
302.9603338
301.6175312
300.8287489
300.399343
300.181453
300.0779315
300.0317067
300.0122454
300.004498
300.0015743
300.000526
300.000168
300.0000514
300.0000151
300.0000042
300.0000012
300.0000003
300.0000001
300
300
300
300
300
300
300
300
300
300
300
300
300
300
300
300
300
300
300
389.6709365
390.6511428
393.0661251
396.7986382
398.0374806
390.1698303
364.1415962
311.7958062
310.3166363
308.4826185
306.344503
304.3555093
302.763699
301.6297293
300.8970223
300.4625118
300.2240906
300.1023061
300.0441206
300.0180153
300.0069797
300.0025709
300.0009021
300.000302
300.0000967
300.0000296
300.0000087
300.0000025
300.0000007
300.0000002
300
300
300
300
300
300
300
300
300
300
300
300
300
300
300
300
300
300
300
300
384.8027671
385.7836393
387.8891389
389.9155428
387.8912595
376.6744164
350.2231631
306.5191187
305.3702347
304.394876
303.2962101
302.2756971
301.4534425
300.8626564
300.4777068
300.2476731
300.1205952
300.0552997
300.0239421
300.0098101
300.0038125
300.0014082
300.0004953
300.0001662
300.0000533
300.0000164
300.0000048
300.0000014
300.0000004
300.0000001
300
300
300
300
300
300
300
300
300
300
300
300
300
300
300
300
300
300
300
300
380.3769151
381.2533261
382.8316087
382.92918
378.2513391
364.9328807
339.3675426
303.7185111
302.8075233
302.2514373
301.6756869
301.1555146
300.7394952
300.440452
300.2449063
300.12751
300.0623397
300.0286959
300.0124679
300.0051251
300.0019976
300.0007398
300.0002608
300.0000877
300.0000282
300.0000087
300.0000026
300.0000007
300.0000002
300.0000001
300
300
300
300
300
300
300
300
300
300
300
300
300
300
300
300
300
300
300
300
376.336801
377.092692
377.7052358
375.9502044
369.1912825
354.6688
330.8379915
302.2277773
301.502664
301.1586346
300.8435325
300.5751407
300.3662721
300.2178998
300.1212741
300.0632733
300.0310166
300.0143185
300.0062392
300.0025719
300.0010051
300.0003732
300.0001319
300.0000444
300.0000143
300.0000044
300.0000013
300.0000004
300.0000001
300
300
300
300
300
300
300
300
300
300
300
300
300
300
300
300
300
300
300
300
300
372.649454
373.0312944
372.5126757
369.1258139
360.8259317
345.843512
324.4465472
301.4203456
300.8434828
300.6125756
300.4281368
300.2844191
300.1783235
300.1051716
300.0582902
300.0303707
300.0148927
300.0068841
300.0030053
300.0012414
300.0004862
300.0001809
300.0000641
300.0000216
300.000007
300.0000022
300.0000006
300.0000002
300
300
300
300
300
300
300
300
300
300
300
300
300
300
300
300
300
300
300
300
300
300
369.0626859
368.9108951
367.2770874
362.5559184
353.2419843
338.4810792
319.9040302
300.9802265
300.5089771
300.3420163
300.2246934
300.1426151
300.0866453
300.0500658
300.027403
300.0141769
300.0069275
300.0031982
300.0013964
300.0005774
300.0002264
300.0000844
300.0000299
300.0000101
300.0000033
300.000001
300.0000003
300.0000001
300
300
300
300
300
300
300
300
300
300
300
300
300
300
300
300
300
300
300
300
300
300
365.3395873
364.5964976
361.9516597
356.197356
346.3308424
332.2391883
316.5142371
300.724988
300.3334433
300.2061712
300.1253453
300.0744614
300.0429514
300.0239011
300.0127515
300.0064897
300.00314
300.0014417
300.0006277
300.0002593
300.0001017
300.0000379
300.0000135
300.0000046
300.0000015
300.0000005
300.0000001
300
300
300
300
300
300
300
300
300
300
300
300
300
300
300
300
300
300
300
300
300
300
300
361.2562499
359.9127158
356.3568484
349.7738169
339.6116833
326.5394472
313.5718797
300.5554647
300.2334637
300.134454
300.0755911
300.0415063
300.0222957
300.0117039
300.0059769
300.0029505
300.0013993
300.0006345
300.0002742
300.0001128
300.0000442
300.0000165
300.0000058
300.000002
300.0000006
300.0000002
300.0000001
300
300
300
300
300
300
300
300
300
300
300
300
300
300
300
300
300
300
300
300
300
300
300
356.541272
354.5828408
350.1527307
342.8362056
332.626882
321.3336685
310.7706029
300.4254843
300.1693362
300.0928123
300.0489312
300.0249066
300.0123515
300.0060141
300.0028824
300.0013552
300.0006208
300.0002751
300.0001172
300.0000478
300.0000186
300.0000069
300.0000025
300.0000008
300.0000003
300.0000001
300
300
300
300
300
300
300
300
300
300
300
300
300
300
300
300
300
300
300
300
300
300
300
300
350.7733255
348.1439718
342.8025774
334.8643025
325.3017062
316.2330593
308.1196842
300.3155846
300.122415
300.0651747
300.0328607
300.0157498
300.0072629
300.0032686
300.0014518
300.0006392
300.0002782
300.0001188
300.0000493
300.0000198
300.0000076
300.0000028
300.000001
300.0000003
300.0000001
300
300
300
300
300
300
300
300
300
300
300
300
300
300
300
300
300
300
300
300
300
300
300
300
300
343.1831891
339.8361302
333.7790728
326.0179028
318.1254891
311.3799441
305.6314865
300.217672
300.0839611
300.0440295
300.0215884
300.0099296
300.0043349
300.0018253
300.0007536
300.0003089
300.0001262
300.0000513
300.0000205
300.000008
300.000003
300.0000011
300.0000004
300.0000001
300
300
300
300
300
300
300
300
300
300
300
300
300
300
300
300
300
300
300
300
300
300
300
300
300
300
332.2129017
328.390405
322.6428328
316.610607
311.1978081
306.8932823
303.3536399
300.129214
300.0496281
300.0257744
300.0124239
300.0055722
300.0023494
300.0009455
300.0003696
300.0001427
300.000055
300.0000212
300.0000082
300.0000031
300.0000012
300.0000004
300.0000001
300
300
300
300
300
300
300
300
300
300
300
300
300
300
300
300
300
300
300
300
300
300
300
300
300
300
300
314.6514598
311.8298056
308.618923
306.0304489
304.0389514
302.4901452
301.2047513
300.0454247
300.0167141
300.008559
300.0040799
300.0018064
300.0007489
300.0002947
300.000112
300.0000418
300.0000155
300.0000058
300.0000022
300.0000008
300.0000003
300.0000001
300
300
300
300
300
300
300
300
300
300
300
300
300
300
300
300
300
300
300
300
300
300
300
300
300
300
300
300
)
;

boundaryField
{
    lowerWall
    {
        type            fixedValue;
        value           uniform 300;
    }
    atmosphere
    {
        type            zeroGradient;
    }
    rightWall
    {
        type            empty;
    }
    leftWall
    {
        type            empty;
    }
    frontAndBack
    {
        type            fixedValue;
        value           uniform 300;
    }
}


// ************************************************************************* //
