/*--------------------------------*- C++ -*----------------------------------*\
  =========                 |
  \\      /  F ield         | OpenFOAM: The Open Source CFD Toolbox
   \\    /   O peration     | Website:  https://openfoam.org
    \\  /    A nd           | Version:  6
     \\/     M anipulation  |
\*---------------------------------------------------------------------------*/
FoamFile
{
    version     2.0;
    format      ascii;
    class       volVectorField;
    location    "0.09";
    object      U;
}
// * * * * * * * * * * * * * * * * * * * * * * * * * * * * * * * * * * * * * //

dimensions      [0 1 -1 0 0 0 0];

internalField   nonuniform List<vector> 
2500
(
(0 -1.059929065 -0.6105624701)
(0 0.06779458399 -0.2846014953)
(0 0.1889898457 -0.1507267032)
(0 0.2723069093 -0.0827283638)
(0 0.2724185722 -0.0202085488)
(0 0.1987011988 0.04209223631)
(0 0.02620746181 0.06656272713)
(0 -0.000601187601 0.003822261895)
(0 -3.320335406e-14 2.23180774e-17)
(0 -6.604513079e-14 -2.807772801e-16)
(0 -6.512529259e-14 -5.565508338e-16)
(0 -6.375758111e-14 -8.112240785e-16)
(0 -6.190814532e-14 -1.037962969e-15)
(0 -5.963865898e-14 -1.231254552e-15)
(0 -5.701948259e-14 -1.387652924e-15)
(0 -5.412571051e-14 -1.505870448e-15)
(0 -5.103304833e-14 -1.586580842e-15)
(0 -4.781424383e-14 -1.632064231e-15)
(0 -4.45362996e-14 -1.645781366e-15)
(0 -4.125854319e-14 -1.631942404e-15)
(0 -3.803151978e-14 -1.595115918e-15)
(0 -3.489660002e-14 -1.53990502e-15)
(0 -3.18861575e-14 -1.470701515e-15)
(0 -2.902416095e-14 -1.391517105e-15)
(0 -2.63270354e-14 -1.305883026e-15)
(0 -2.380466803e-14 -1.216805622e-15)
(0 -2.146146038e-14 -1.126764304e-15)
(0 -1.929735487e-14 -1.03773911e-15)
(0 -1.730878752e-14 -9.512569073e-16)
(0 -1.548953821e-14 -8.684475041e-16)
(0 -1.383146536e-14 -7.901031399e-16)
(0 -1.232512267e-14 -7.167368302e-16)
(0 -1.096026325e-14 -6.486366535e-16)
(0 -9.726240825e-15 -5.859143468e-16)
(0 -8.612320174e-15 -5.285474989e-16)
(0 -7.607909646e-15 -4.764152699e-16)
(0 -6.702728367e-15 -4.293279756e-16)
(0 -5.886919863e-15 -3.870511109e-16)
(0 -5.1511225e-15 -3.493245011e-16)
(0 -4.486505796e-15 -3.158772959e-16)
(0 -3.884780211e-15 -2.864395004e-16)
(0 -3.338186708e-15 -2.607506766e-16)
(0 -2.83947118e-15 -2.385663833e-16)
(0 -2.381847778e-15 -2.196628447e-16)
(0 -1.958954231e-15 -2.038402804e-16)
(0 -1.564801466e-15 -1.909252972e-16)
(0 -1.193718888e-15 -1.807728299e-16)
(0 -8.402952837e-16 -1.732686047e-16)
(0 -4.993112996e-16 -1.683351772e-16)
(0 -1.656432439e-16 -1.65954132e-16)
(0 -1.03094866 -0.9642741367)
(0 -0.4675356301 -0.5388885331)
(0 -0.1978986578 -0.2060526756)
(0 -0.05883007625 -0.03734726274)
(0 0.01086223801 0.06168287766)
(0 0.02086373653 0.1355018572)
(0 -0.01950773964 0.1321136528)
(0 9.360679671e-05 0.005695336688)
(0 -3.349286291e-14 3.145326111e-17)
(0 -6.66148853e-14 -8.575603448e-16)
(0 -6.565573938e-14 -1.690720062e-15)
(0 -6.423899324e-14 -2.461642611e-15)
(0 -6.232817579e-14 -3.147377857e-15)
(0 -5.998834894e-14 -3.730707195e-15)
(0 -5.729409848e-14 -4.201199983e-15)
(0 -5.432463843e-14 -4.555189545e-15)
(0 -5.115924211e-14 -4.795051527e-15)
(0 -4.787344435e-14 -4.92805174e-15)
(0 -4.453617777e-14 -4.965003412e-15)
(0 -4.120787774e-14 -4.918927863e-15)
(0 -3.79394824e-14 -4.803854619e-15)
(0 -3.477218562e-14 -4.633838848e-15)
(0 -3.173776959e-14 -4.4222248e-15)
(0 -2.885934247e-14 -4.181147997e-15)
(0 -2.615232392e-14 -3.921246624e-15)
(0 -2.362554931e-14 -3.651541812e-15)
(0 -2.128239386e-14 -3.379444279e-15)
(0 -1.912184747e-14 -3.110847972e-15)
(0 -1.713949591e-14 -2.850277413e-15)
(0 -1.532838444e-14 -2.601062544e-15)
(0 -1.367975469e-14 -2.365521752e-15)
(0 -1.218365619e-14 -2.145139799e-15)
(0 -1.082944077e-14 -1.940732323e-15)
(0 -9.60615167e-15 -1.752592339e-15)
(0 -8.502821097e-15 -1.580616888e-15)
(0 -7.508690122e-15 -1.424413861e-15)
(0 -6.613364208e-15 -1.283390175e-15)
(0 -5.806916388e-15 -1.156823158e-15)
(0 -5.079948685e-15 -1.043917287e-15)
(0 -4.423620796e-15 -9.438484757e-16)
(0 -3.829653592e-15 -8.557980331e-16)
(0 -3.290313591e-15 -7.789782032e-16)
(0 -2.798383348e-15 -7.126509902e-16)
(0 -2.347121675e-15 -6.561417356e-16)
(0 -1.930216684e-15 -6.088487036e-16)
(0 -1.541734016e-15 -5.702497701e-16)
(0 -1.176062196e-15 -5.399072644e-16)
(0 -8.27857631e-16 -5.174722717e-16)
(0 -4.919968268e-16 -5.026907797e-16)
(0 -1.632621987e-16 -4.954180461e-16)
(0 -1.064131632 -1.222739331)
(0 -0.7479497234 -0.9514358325)
(0 -0.3532681531 -0.5027892821)
(0 -0.1405416635 -0.1659318235)
(0 -0.09107011342 0.01173393731)
(0 -0.06096761235 0.1127303984)
(0 -0.0156097446 0.1040974086)
(0 0.0002902036268 -0.0005040482816)
(0 -3.407038393e-14 -7.93319332e-20)
(0 -6.775282281e-14 -1.470140629e-15)
(0 -6.672937485e-14 -2.88704854e-15)
(0 -6.52142389e-14 -4.197251913e-15)
(0 -6.31772099e-14 -5.359203408e-15)
(0 -6.069248111e-14 -6.343007669e-15)
(0 -5.784396494e-14 -7.13127152e-15)
(0 -5.471956206e-14 -7.718669511e-15)
(0 -5.140591053e-14 -8.110430163e-15)
(0 -4.798419571e-14 -8.320146734e-15)
(0 -4.452717572e-14 -8.367323567e-15)
(0 -4.10973944e-14 -8.274992632e-15)
(0 -3.774643077e-14 -8.067626819e-15)
(0 -3.45149702e-14 -7.769469941e-15)
(0 -3.143346665e-14 -7.403316639e-15)
(0 -2.852318278e-14 -6.989715062e-15)
(0 -2.579742921e-14 -6.546530264e-15)
(0 -2.326286568e-14 -6.088791711e-15)
(0 -2.092076654e-14 -5.62874795e-15)
(0 -1.8768188e-14 -5.176059614e-15)
(0 -1.679900209e-14 -4.738074127e-15)
(0 -1.500478255e-14 -4.320138606e-15)
(0 -1.337554262e-14 -3.925919686e-15)
(0 -1.190033324e-14 -3.557709395e-15)
(0 -1.056771579e-14 -3.216704441e-15)
(0 -9.36612539e-15 -2.903252462e-15)
(0 -8.284141696e-15 -2.617063119e-15)
(0 -7.310682932e-15 -2.357384845e-15)
(0 -6.435137664e-15 -2.123149763e-15)
(0 -5.647446975e-15 -1.913090286e-15)
(0 -4.938147817e-15 -1.725831237e-15)
(0 -4.298386542e-15 -1.55996133e-15)
(0 -3.719909939e-15 -1.414087627e-15)
(0 -3.195039665e-15 -1.286876221e-15)
(0 -2.716634713e-15 -1.177081978e-15)
(0 -2.278045491e-15 -1.083569765e-15)
(0 -1.873062266e-15 -1.005329199e-15)
(0 -1.495860027e-15 -9.414845738e-16)
(0 -1.14094139e-15 -8.913013e-16)
(0 -8.03078799e-16 -8.541896421e-16)
(0 -4.77257074e-16 -8.297051613e-16)
(0 -1.583705103e-16 -8.175394875e-16)
(0 -0.9755556982 -1.298968834)
(0 -0.9277031379 -1.272438026)
(0 -0.5348387712 -0.8523133177)
(0 -0.2102633833 -0.3510042059)
(0 -0.04230230059 -0.02788053021)
(0 -0.04756392176 0.05811673812)
(0 0.003722823978 0.05663905011)
(0 4.5222599e-05 -0.001761299541)
(0 -3.497368929e-14 -7.199497872e-18)
(0 -6.950582753e-14 -2.137864376e-15)
(0 -6.838285067e-14 -4.190034085e-15)
(0 -6.671114811e-14 -6.081043485e-15)
(0 -6.447393155e-14 -7.749099224e-15)
(0 -6.176041705e-14 -9.150770758e-15)
(0 -5.866976032e-14 -1.026213575e-14)
(0 -5.530379707e-14 -1.107772168e-14)
(0 -5.176071934e-14 -1.160779715e-14)
(0 -4.813033776e-14 -1.187473484e-14)
(0 -4.449102367e-14 -1.190911253e-14)
(0 -4.090818099e-14 -1.174605896e-14)
(0 -3.743395971e-14 -1.142216023e-14)
(0 -3.410787544e-14 -1.097306901e-14)
(0 -3.095801471e-14 -1.043182798e-14)
(0 -2.800255609e-14 -9.827834895e-15)
(0 -2.525140056e-14 -9.186334567e-15)
(0 -2.270776699e-14 -8.528310474e-15)
(0 -2.036966177e-14 -7.870656274e-15)
(0 -1.823117365e-14 -7.226524798e-15)
(0 -1.62835749e-14 -6.605773629e-15)
(0 -1.451623e-14 -6.015447338e-15)
(0 -1.291732548e-14 -5.460255005e-15)
(0 -1.147444094e-14 -4.943016668e-15)
(0 -1.017498384e-14 -4.465063869e-15)
(0 -9.006510348e-15 -4.026587765e-15)
(0 -7.956953481e-15 -3.626933891e-15)
(0 -7.014776765e-15 -3.264846275e-15)
(0 -6.169069649e-15 -2.938665633e-15)
(0 -5.409597863e-15 -2.646487326e-15)
(0 -4.726819728e-15 -2.386285023e-15)
(0 -4.111877185e-15 -2.156005762e-15)
(0 -3.556568483e-15 -1.953641667e-15)
(0 -3.053307942e-15 -1.777282924e-15)
(0 -2.595076893e-15 -1.625156021e-15)
(0 -2.175368896e-15 -1.495650598e-15)
(0 -1.788131492e-15 -1.387337681e-15)
(0 -1.427706117e-15 -1.298981545e-15)
(0 -1.088767264e-15 -1.229546939e-15)
(0 -7.662614922e-16 -1.178202888e-15)
(0 -4.553466723e-16 -1.144323708e-15)
(0 -1.510965249e-16 -1.127487838e-15)
(0 -0.799516759 -1.223595975)
(0 -0.9868810311 -1.450160429)
(0 -0.7090529076 -1.211860451)
(0 -0.3678334052 -0.6899954227)
(0 -0.02288481062 -0.1286614728)
(0 0.003082839442 0.04900145218)
(0 0.00752415526 0.04332219296)
(0 -0.0001832369819 0.0002577026404)
(0 -3.622002245e-14 -4.030642436e-19)
(0 -7.194409174e-14 -2.89055753e-15)
(0 -7.067255396e-14 -5.654165698e-15)
(0 -6.877330404e-14 -8.187696138e-15)
(0 -6.624693717e-14 -1.040528049e-14)
(0 -6.320551763e-14 -1.224874664e-14)
(0 -5.977091586e-14 -1.368869854e-14)
(0 -5.606522346e-14 -1.472222173e-14)
(0 -5.220292368e-14 -1.536825853e-14)
(0 -4.82855111e-14 -1.566185756e-14)
(0 -4.439849985e-14 -1.564832259e-14)
(0 -4.061044209e-14 -1.5377972e-14)
(0 -3.697344081e-14 -1.490189579e-14)
(0 -3.352463795e-14 -1.426883251e-14)
(0 -3.028823254e-14 -1.352310829e-14)
(0 -2.727768937e-14 -1.270347923e-14)
(0 -2.449790479e-14 -1.184267882e-14)
(0 -2.194718739e-14 -1.096747358e-14)
(0 -1.961898086e-14 -1.009905368e-14)
(0 -1.750330536e-14 -9.253618873e-15)
(0 -1.558792463e-14 -8.443054876e-15)
(0 -1.385926393e-14 -7.675626327e-15)
(0 -1.230311195e-14 -6.956638371e-15)
(0 -1.090514211e-14 -6.289038539e-15)
(0 -9.65128689e-15 -5.673945111e-15)
(0 -8.527995412e-15 -5.111097982e-15)
(0 -7.522400206e-15 -4.599234419e-15)
(0 -6.622414674e-15 -4.136395828e-15)
(0 -5.816778715e-15 -3.720173525e-15)
(0 -5.095066365e-15 -3.347902135e-15)
(0 -4.447666253e-15 -3.016809077e-15)
(0 -3.865743187e-15 -2.724127983e-15)
(0 -3.341187101e-15 -2.467183033e-15)
(0 -2.866554019e-15 -2.243450256e-15)
(0 -2.435002387e-15 -2.050600896e-15)
(0 -2.04022715e-15 -1.886531117e-15)
(0 -1.676393213e-15 -1.749381487e-15)
(0 -1.338069286e-15 -1.63754903e-15)
(0 -1.020162732e-15 -1.549694026e-15)
(0 -7.178555673e-16 -1.484743236e-15)
(0 -4.265420248e-16 -1.441890866e-15)
(0 -1.415346411e-16 -1.42059873e-15)
(0 -0.5801600507 -1.030502697)
(0 -0.9392703155 -1.450428218)
(0 -0.8250321401 -1.459750256)
(0 -0.5552638672 -1.053227831)
(0 -0.1697868559 -0.4095076754)
(0 0.04802114206 0.03595444022)
(0 0.001167964684 0.05897176747)
(0 -0.0002626262581 0.0005313134873)
(0 -3.786123477e-14 -6.547602343e-19)
(0 -7.516316043e-14 -3.765030394e-15)
(0 -7.367998928e-14 -7.3483187e-15)
(0 -7.146226291e-14 -1.061015664e-14)
(0 -6.853498205e-14 -1.343543616e-14)
(0 -6.504383509e-14 -1.575010439e-14)
(0 -6.114323542e-14 -1.752158071e-14)
(0 -5.698335707e-14 -1.875412756e-14)
(0 -5.270035516e-14 -1.948110629e-14)
(0 -4.841040181e-14 -1.975608904e-14)
(0 -4.420713812e-14 -1.96443442e-14)
(0 -4.01617542e-14 -1.921562221e-14)
(0 -3.632482021e-14 -1.853864026e-14)
(0 -3.272908794e-14 -1.767728454e-14)
(0 -2.939266143e-14 -1.668832332e-14)
(0 -2.632212661e-14 -1.562032449e-14)
(0 -2.351539491e-14 -1.45134555e-14)
(0 -2.096414186e-14 -1.339987601e-14)
(0 -1.865580707e-14 -1.230448726e-14)
(0 -1.657517485e-14 -1.124585994e-14)
(0 -1.470558236e-14 -1.023721515e-14)
(0 -1.30298135e-14 -9.28737618e-15)
(0 -1.153073769e-14 -8.401642415e-15)
(0 -1.019174768e-14 -7.582560543e-15)
(0 -8.997043279e-15 -6.830584701e-15)
(0 -7.931799656e-15 -6.144627735e-15)
(0 -6.982251326e-15 -5.522511836e-15)
(0 -6.135715871e-15 -4.961329974e-15)
(0 -5.380575956e-15 -4.457730629e-15)
(0 -4.706233415e-15 -4.00813816e-15)
(0 -4.103045576e-15 -3.608920283e-15)
(0 -3.562251142e-15 -3.256512859e-15)
(0 -3.075890756e-15 -2.947510804e-15)
(0 -2.636725804e-15 -2.678732588e-15)
(0 -2.238157755e-15 -2.447264502e-15)
(0 -1.874149487e-15 -2.250489733e-15)
(0 -1.539149404e-15 -2.086106323e-15)
(0 -1.228018656e-15 -1.952137236e-15)
(0 -9.3596147e-16 -1.846935059e-15)
(0 -6.584583318e-16 -1.769183313e-15)
(0 -3.912021662e-16 -1.717895921e-15)
(0 -1.29804389e-16 -1.692416168e-15)
(0 -0.3613403685 -0.7695066744)
(0 -0.8161771108 -1.300834753)
(0 -0.8750514041 -1.569565998)
(0 -0.7170561645 -1.365410348)
(0 -0.3524081545 -0.7450333693)
(0 -0.003895867689 -0.0760840347)
(0 -0.0007467481282 0.08337085007)
(0 -0.0003960232351 -0.002135032756)
(0 -3.99724421e-14 -1.639692623e-17)
(0 -7.929628771e-14 -4.811797362e-15)
(0 -7.751768021e-14 -9.363809697e-15)
(0 -7.48604215e-14 -1.34689707e-14)
(0 -7.138688493e-14 -1.697599603e-14)
(0 -6.729166218e-14 -1.979447004e-14)
(0 -6.277493903e-14 -2.189324699e-14)
(0 -5.802474904e-14 -2.329150055e-14)
(0 -5.320488515e-14 -2.40458916e-14)
(0 -4.844874901e-14 -2.423702573e-14)
(0 -4.385803303e-14 -2.395734819e-14)
(0 -3.950473815e-14 -2.330155657e-14)
(0 -3.543510315e-14 -2.235979414e-14)
(0 -3.167432101e-14 -2.121338315e-14)
(0 -2.823127249e-14 -1.993261805e-14)
(0 -2.510282154e-14 -1.857608004e-14)
(0 -2.227745631e-14 -1.719097907e-14)
(0 -1.973821915e-14 -1.581411947e-14)
(0 -1.746496479e-14 -1.447318627e-14)
(0 -1.543603325e-14 -1.31881406e-14)
(0 -1.362944087e-14 -1.197258736e-14)
(0 -1.202369119e-14 -1.083503472e-14)
(0 -1.059829631e-14 -9.780005162e-15)
(0 -9.334084395e-15 -8.808984357e-15)
(0 -8.213354082e-15 -7.921211005e-15)
(0 -7.219922547e-15 -7.114320203e-15)
(0 -6.339102445e-15 -6.384857574e-15)
(0 -5.557633467e-15 -5.728682863e-15)
(0 -4.863586901e-15 -5.141281279e-15)
(0 -4.246256019e-15 -4.617999388e-15)
(0 -3.696040953e-15 -4.154220379e-15)
(0 -3.204333707e-15 -3.745491385e-15)
(0 -2.76340683e-15 -3.387613529e-15)
(0 -2.366307717e-15 -3.076703438e-15)
(0 -2.006759531e-15 -2.809233346e-15)
(0 -1.679068971e-15 -2.582055489e-15)
(0 -1.378040716e-15 -2.392415308e-15)
(0 -1.098898022e-15 -2.237956992e-15)
(0 -8.372088094e-16 -2.116724119e-15)
(0 -5.888164296e-16 -2.027157492e-15)
(0 -3.497748802e-16 -1.968091795e-15)
(0 -1.160548879e-16 -1.938752293e-15)
(0 -0.1680328761 -0.4840046753)
(0 -0.6376627384 -1.033546349)
(0 -0.8579979857 -1.530689127)
(0 -0.8378947459 -1.588449307)
(0 -0.5365697212 -1.096803223)
(0 -0.1406038002 -0.3256108435)
(0 -0.001706815845 0.06763302069)
(0 -0.0006200040518 -0.008262999806)
(0 -4.265508486e-14 -5.662927174e-17)
(0 -8.452646734e-14 -6.101840257e-15)
(0 -8.233716261e-14 -1.182597167e-14)
(0 -7.907444923e-14 -1.692561671e-14)
(0 -7.486048139e-14 -2.12048112e-14)
(0 -6.996108605e-14 -2.45582814e-14)
(0 -6.464026593e-14 -2.696524936e-14)
(0 -5.913600168e-14 -2.847261643e-14)
(0 -5.364588034e-14 -2.917387468e-14)
(0 -4.83218584e-14 -2.918876285e-14)
(0 -4.327166896e-14 -2.864648907e-14)
(0 -3.856420015e-14 -2.76735059e-14)
(0 -3.423664679e-14 -2.638565179e-14)
(0 -3.030191184e-14 -2.488389453e-14)
(0 -2.675535832e-14 -2.325274263e-14)
(0 -2.358048763e-14 -2.15604507e-14)
(0 -2.075343434e-14 -1.9860307e-14)
(0 -1.824634905e-14 -1.819247528e-14)
(0 -1.60298282e-14 -1.658602967e-14)
(0 -1.407457594e-14 -1.506095447e-14)
(0 -1.235247648e-14 -1.362997905e-14)
(0 -1.08372313e-14 -1.230018553e-14)
(0 -9.504687328e-15 -1.107437057e-14)
(0 -8.332953527e-15 -9.952168915e-15)
(0 -7.302379125e-15 -8.930960386e-15)
(0 -6.395446226e-15 -8.00658811e-15)
(0 -5.596613986e-15 -7.173917453e-15)
(0 -4.892139576e-15 -6.427263505e-15)
(0 -4.269892481e-15 -5.760712238e-15)
(0 -3.719172514e-15 -5.168357104e-15)
(0 -3.230537572e-15 -4.644469376e-15)
(0 -2.795644292e-15 -4.183617381e-15)
(0 -2.40710281e-15 -3.780746898e-15)
(0 -2.058345622e-15 -3.431232575e-15)
(0 -1.743509806e-15 -3.130908172e-15)
(0 -1.457331449e-15 -2.876081757e-15)
(0 -1.195050907e-15 -2.663540607e-15)
(0 -9.523274669e-16 -2.490549492e-15)
(0 -7.251619696e-16 -2.354845134e-15)
(0 -5.098260074e-16 -2.254628952e-15)
(0 -3.02796968e-16 -2.188559695e-15)
(0 -1.004648876e-16 -2.15574707e-15)
(0 -0.01892210412 -0.2239773496)
(0 -0.417529468 -0.6948035772)
(0 -0.7610298913 -1.347614573)
(0 -0.8957546463 -1.692947083)
(0 -0.7039876917 -1.434494552)
(0 -0.2896787185 -0.6581416387)
(0 -0.001083178432 0.008629825451)
(0 -0.0006156847093 -0.01561104248)
(0 -4.605862766e-14 -1.14553541e-16)
(0 -9.110625282e-14 -7.738452469e-15)
(0 -8.834145666e-14 -1.49122741e-14)
(0 -8.423926103e-14 -2.120226057e-14)
(0 -7.901954962e-14 -2.635892867e-14)
(0 -7.305210034e-14 -3.02682569e-14)
(0 -6.668927406e-14 -3.293661981e-14)
(0 -6.023337435e-14 -3.445970993e-14)
(0 -5.392103157e-14 -3.498818046e-14)
(0 -4.792136341e-14 -3.469767567e-14)
(0 -4.234277608e-14 -3.37663924e-14)
(0 -3.724390086e-14 -3.236040055e-14)
(0 -3.264549177e-14 -3.062549492e-14)
(0 -2.854141185e-14 -2.868388189e-14)
(0 -2.490782865e-14 -2.663408216e-14)
(0 -2.171038592e-14 -2.455273886e-14)
(0 -1.89094809e-14 -2.249737852e-14)
(0 -1.646394183e-14 -2.050949059e-14)
(0 -1.433344398e-14 -1.86175391e-14)
(0 -1.247998264e-14 -1.683969695e-14)
(0 -1.086867193e-14 -1.518621045e-14)
(0 -9.468082704e-15 -1.366137377e-14)
(0 -8.250279693e-15 -1.22651341e-14)
(0 -7.190674216e-15 -1.099436821e-14)
(0 -6.267773277e-15 -9.843878587e-15)
(0 -5.462879614e-15 -8.807157333e-15)
(0 -4.759777841e-15 -7.876961956e-15)
(0 -4.144428252e-15 -7.045741615e-15)
(0 -3.6046805e-15 -6.305946365e-15)
(0 -3.130013156e-15 -5.650246117e-15)
(0 -2.71130123e-15 -5.071680941e-15)
(0 -2.340611229e-15 -4.56375991e-15)
(0 -2.011022024e-15 -4.120522e-15)
(0 -1.716468991e-15 -3.736569606e-15)
(0 -1.451608713e-15 -3.407082799e-15)
(0 -1.211701406e-15 -3.127820555e-15)
(0 -9.925084513e-16 -2.895113692e-15)
(0 -7.902025486e-16 -2.705853092e-15)
(0 -6.012882691e-16 -2.557475859e-15)
(0 -4.225309908e-16 -2.447951406e-15)
(0 -2.50892998e-16 -2.375768901e-15)
(0 -8.324226298e-17 -2.339927088e-15)
(0 0.06783102067 -0.05413621076)
(0 -0.1797712179 -0.3462851113)
(0 -0.5763408841 -1.040607578)
(0 -0.8626628619 -1.64950033)
(0 -0.8290819578 -1.709532326)
(0 -0.451977214 -1.059787116)
(0 -0.006207390626 -0.1479928994)
(0 0.0003605768547 -0.01569707811)
(0 -5.038128376e-14 -1.791714809e-16)
(0 -9.940008016e-14 -9.885938878e-15)
(0 -9.580097071e-14 -1.888172374e-14)
(0 -9.05211038e-14 -2.661154628e-14)
(0 -8.392647772e-14 -3.275978471e-14)
(0 -7.653877719e-14 -3.721875145e-14)
(0 -6.883171896e-14 -4.005298828e-14)
(0 -6.118756233e-14 -4.144129799e-14)
(0 -5.388384608e-14 -4.162144866e-14)
(0 -4.710007034e-14 -4.084742753e-14)
(0 -4.093439384e-14 -3.93611056e-14)
(0 -3.542330267e-14 -3.737632692e-14)
(0 -3.056012812e-14 -3.507216389e-14)
(0 -2.631049908e-14 -3.259216539e-14)
(0 -2.262421529e-14 -3.004706094e-14)
(0 -1.9443784e-14 -2.751912436e-14)
(0 -1.671018607e-14 -2.506704289e-14)
(0 -1.436650963e-14 -2.273062106e-14)
(0 -1.236003456e-14 -2.053497896e-14)
(0 -1.064324729e-14 -1.84941137e-14)
(0 -9.1741533e-15 -1.661381392e-14)
(0 -7.916154959e-15 -1.489398052e-14)
(0 -6.837681771e-15 -1.333043441e-14)
(0 -5.91169801e-15 -1.191629797e-14)
(0 -5.115168245e-15 -1.064303227e-14)
(0 -4.428529594e-15 -9.501202403e-15)
(0 -3.835198268e-15 -8.481031599e-15)
(0 -3.321123986e-15 -7.57279372e-15)
(0 -2.874396983e-15 -6.767083825e-15)
(0 -2.48490709e-15 -6.054997897e-15)
(0 -2.144051366e-15 -5.428245899e-15)
(0 -1.844485351e-15 -4.879216687e-15)
(0 -1.579912506e-15 -4.401008882e-15)
(0 -1.344906421e-15 -3.98743834e-15)
(0 -1.134760754e-15 -3.633030188e-15)
(0 -9.453623415e-16 -3.333001351e-15)
(0 -7.730834441e-16 -3.083237962e-15)
(0 -6.146896337e-16 -2.880270838e-15)
(0 -4.672602841e-16 -2.721251379e-15)
(0 -3.281190495e-16 -2.603929537e-15)
(0 -1.947726496e-16 -2.526635072e-15)
(0 -6.462307468e-17 -2.488262883e-15)
(0 0.1067506838 0.01518293053)
(0 0.03199367176 -0.06660310935)
(0 -0.3199338111 -0.6541534832)
(0 -0.7229245655 -1.442309585)
(0 -0.8779492682 -1.857383645)
(0 -0.612078147 -1.474610699)
(0 -0.07737396964 -0.4694009766)
(0 0.003133293181 -0.01424906098)
(0 -5.586336453e-14 -6.551698549e-16)
(0 -1.099148281e-13 -1.281676845e-14)
(0 -1.050670641e-13 -2.411596862e-14)
(0 -9.8117322e-14 -3.360137807e-14)
(0 -8.962675478e-14 -4.084905225e-14)
(0 -8.034530391e-14 -4.579340479e-14)
(0 -7.091182061e-14 -4.861498887e-14)
(0 -6.180183474e-14 -4.963096371e-14)
(0 -5.332716111e-14 -4.920894899e-14)
(0 -4.566102034e-14 -4.77096201e-14)
(0 -3.887167548e-14 -4.545444929e-14)
(0 -3.295495916e-14 -4.271181522e-14)
(0 -2.786133024e-14 -3.969483245e-14)
(0 -2.35163089e-14 -3.656569719e-14)
(0 -1.983478762e-14 -3.344298987e-14)
(0 -1.673036787e-14 -3.040974926e-14)
(0 -1.412097761e-14 -2.752112119e-14)
(0 -1.193187789e-14 -2.481102756e-14)
(0 -1.009693662e-14 -2.229768316e-14)
(0 -8.558817597e-15 -1.998799459e-14)
(0 -7.268538744e-15 -1.788097157e-14)
(0 -6.184703199e-15 -1.597031363e-14)
(0 -5.272597148e-15 -1.424633354e-14)
(0 -4.50327207e-15 -1.269736165e-14)
(0 -3.852677708e-15 -1.1310752e-14)
(0 -3.300878944e-15 -1.007358833e-14)
(0 -2.831369158e-15 -8.973166888e-15)
(0 -2.430480479e-15 -7.997315515e-15)
(0 -2.086884677e-15 -7.134594427e-15)
(0 -1.79117523e-15 -6.374412533e-15)
(0 -1.535520019e-15 -5.707084702e-15)
(0 -1.313374212e-15 -5.12384865e-15)
(0 -1.119243677e-15 -4.616855134e-15)
(0 -9.484902971e-16 -4.179141405e-15)
(0 -7.971717239e-16 -3.804595092e-15)
(0 -6.619091804e-16 -3.487913653e-15)
(0 -5.397779387e-16 -3.224563038e-15)
(0 -4.282159655e-16 -3.010738102e-15)
(0 -3.249469679e-16 -2.843326553e-15)
(0 -2.279146846e-16 -2.719877635e-15)
(0 -1.352263443e-16 -2.638576362e-15)
(0 -4.487007394e-17 -2.598223823e-15)
(0 0.146681325 0.0258542501)
(0 0.1577209604 0.06605193855)
(0 -0.04270252415 -0.2637512299)
(0 -0.4874134947 -1.083889384)
(0 -0.8290099801 -1.824206589)
(0 -0.7527558589 -1.822407131)
(0 -0.2399056869 -0.9027577537)
(0 0.00651293911 -0.04584371924)
(0 -6.254048753e-14 -8.14380339e-16)
(0 -1.230257059e-13 -1.668938852e-14)
(0 -1.165855803e-13 -3.116129335e-14)
(0 -1.072541874e-13 -4.282715374e-14)
(0 -9.611850444e-14 -5.124041119e-14)
(0 -8.430471381e-14 -5.649014325e-14)
(0 -7.266927788e-14 -5.898234578e-14)
(0 -6.178152245e-14 -5.925865309e-14)
(0 -5.196250246e-14 -5.7873959e-14)
(0 -4.334557065e-14 -5.532791972e-14)
(0 -3.593658896e-14 -5.203553238e-14)
(0 -2.966368582e-14 -4.832190673e-14)
(0 -2.44140101e-14 -4.442987158e-14)
(0 -2.005865651e-14 -4.053297881e-14)
(0 -1.646826736e-14 -3.674959167e-14)
(0 -1.352191531e-14 -3.315586785e-14)
(0 -1.111146438e-14 -2.979674372e-14)
(0 -9.143071596e-15 -2.669474151e-14)
(0 -7.537001583e-15 -2.385677117e-14)
(0 -6.226535702e-15 -2.127923663e-14)
(0 -5.156472336e-15 -1.895178123e-14)
(0 -4.281516932e-15 -1.685997895e-14)
(0 -3.564729791e-15 -1.498722952e-14)
(0 -2.976116465e-15 -1.331606459e-14)
(0 -2.491394934e-15 -1.182902484e-14)
(0 -2.090944486e-15 -1.050922956e-14)
(0 -1.758925449e-15 -9.340728615e-15)
(0 -1.482551525e-15 -8.308702953e-15)
(0 -1.251494001e-15 -7.399561479e-15)
(0 -1.057397365e-15 -6.600968666e-15)
(0 -8.934874819e-16 -5.901827335e-15)
(0 -7.542557828e-16 -5.292233818e-15)
(0 -6.352052615e-16 -4.763417521e-15)
(0 -5.326463787e-16 -4.307673179e-15)
(0 -4.435330022e-16 -3.918291451e-15)
(0 -3.653302877e-16 -3.589491658e-15)
(0 -2.959078927e-16 -3.31635914e-15)
(0 -2.334531485e-16 -3.094788838e-15)
(0 -1.763998175e-16 -2.921436083e-15)
(0 -1.233688582e-16 -2.793675174e-15)
(0 -7.311883706e-17 -2.709566066e-15)
(0 -2.427053582e-17 -2.667829322e-15)
(0 0.1930478969 0.02005793093)
(0 0.2065424103 0.08579420169)
(0 0.1727789983 0.02275666873)
(0 -0.1956055023 -0.6288242632)
(0 -0.6762364333 -1.58529327)
(0 -0.8587672181 -2.032931989)
(0 -0.4667696741 -1.380478585)
(0 0.007340407943 -0.1638902304)
(0 -7.167910106e-14 -8.358947275e-16)
(0 -1.406421287e-13 -2.218143191e-14)
(0 -1.312048293e-13 -4.100890775e-14)
(0 -1.181964398e-13 -5.530285521e-14)
(0 -1.032897443e-13 -6.479371045e-14)
(0 -8.808723851e-14 -6.994373175e-14)
(0 -7.368033045e-14 -7.156553027e-14)
(0 -6.069344795e-14 -7.054761897e-14)
(0 -4.939642774e-14 -6.770073677e-14)
(0 -3.982259372e-14 -6.369301642e-14)
(0 -3.186566248e-14 -5.903826498e-14)
(0 -2.534929835e-14 -5.411075407e-14)
(0 -2.007240232e-14 -4.917004429e-14)
(0 -1.583602899e-14 -4.438696593e-14)
(0 -1.245767665e-14 -3.986668637e-14)
(0 -9.777519923e-15 -3.566749895e-14)
(0 -7.659851272e-15 -3.181532254e-14)
(0 -5.991905337e-15 -2.831447628e-14)
(0 -4.681431736e-15 -2.515545733e-14)
(0 -3.653827661e-15 -2.232042001e-14)
(0 -2.849281065e-15 -1.978694882e-14)
(0 -2.220151488e-15 -1.75305959e-14)
(0 -1.728682791e-15 -1.552654113e-14)
(0 -1.345067389e-15 -1.375063962e-14)
(0 -1.045842677e-15 -1.218004873e-14)
(0 -8.125827164e-16 -1.079357096e-14)
(0 -6.308425501e-16 -9.57180908e-15)
(0 -4.893133433e-16 -8.497200089e-15)
(0 -3.791503903e-16 -7.553973844e-15)
(0 -2.934410858e-16 -6.728067516e-15)
(0 -2.267851704e-16 -6.007016654e-15)
(0 -1.749643983e-16 -5.379836604e-15)
(0 -1.346830379e-16 -4.836903139e-15)
(0 -1.033642271e-16 -4.369837859e-15)
(0 -7.899020364e-17 -3.971401709e-15)
(0 -5.997686989e-17 -3.635398504e-15)
(0 -4.507511882e-17 -3.356589387e-15)
(0 -3.329290825e-17 -3.130618594e-15)
(0 -2.383330376e-17 -2.953950499e-15)
(0 -1.60446673e-17 -2.823817768e-15)
(0 -9.380491986e-18 -2.738180344e-15)
(0 -3.133330034e-18 -2.695694975e-15)
(0 0.2383808949 0.0196838834)
(0 0.2355910001 0.06978630202)
(0 0.2615000808 0.1241926538)
(0 0.08594063872 -0.1837886733)
(0 -0.4215129195 -1.155943056)
(0 -0.903046074 -2.045702237)
(0 -0.7217430445 -1.83877768)
(0 0.001963933047 -0.4232075304)
(0 -8.407215156e-14 -2.633765448e-15)
(0 -1.641484984e-13 -3.088959072e-14)
(0 -1.497070036e-13 -5.538597237e-14)
(0 -1.310389901e-13 -7.257799562e-14)
(0 -1.10759381e-13 -8.268608973e-14)
(0 -9.107653363e-14 -8.692516045e-14)
(0 -7.32731651e-14 -8.678881096e-14)
(0 -5.791672895e-14 -8.366626715e-14)
(0 -4.510789992e-14 -7.868912338e-14)
(0 -3.468309886e-14 -7.270584146e-14)
(0 -2.635432661e-14 -6.631433044e-14)
(0 -1.979546513e-14 -5.991324394e-14)
(0 -1.469022195e-14 -5.375291399e-14)
(0 -1.07552986e-14 -4.797838873e-14)
(0 -7.748800384e-15 -4.266285097e-14)
(0 -5.470551484e-15 -3.783222719e-14)
(0 -3.758441708e-15 -3.348264048e-14)
(0 -2.483206389e-15 -2.95924256e-14)
(0 -1.542945317e-15 -2.613018487e-14)
(0 -8.58027189e-16 -2.306004759e-14)
(0 -3.666482261e-16 -2.034500014e-14)
(0 -2.110923511e-17 -1.79489115e-14)
(0 2.152264934e-16 -1.583769309e-14)
(0 3.703759321e-16 -1.397989596e-14)
(0 4.656737292e-16 -1.234695064e-14)
(0 5.172951617e-16 -1.091318744e-14)
(0 5.374454189e-16 -9.655727849e-15)
(0 5.352837116e-16 -8.554306096e-15)
(0 5.17638572e-16 -7.591058454e-15)
(0 4.89559825e-16 -6.750303655e-15)
(0 4.547434296e-16 -6.018328514e-15)
(0 4.15857732e-16 -5.383186732e-15)
(0 3.74793484e-16 -4.834515031e-15)
(0 3.328550512e-16 -4.363368349e-15)
(0 2.909063526e-16 -3.962074391e-15)
(0 2.494820341e-16 -3.624106999e-15)
(0 2.088720169e-16 -3.343977363e-15)
(0 1.691857399e-16 -3.117141963e-15)
(0 1.304010085e-16 -2.939926065e-15)
(0 9.240129666e-17 -2.809461722e-15)
(0 5.500395617e-17 -2.723639333e-15)
(0 1.821483319e-17 -2.681071996e-15)
(0 0.2821335817 0.02189853649)
(0 0.2760106374 0.06296348015)
(0 0.2914091351 0.1306980912)
(0 0.2699512677 0.1116863482)
(0 -0.08041252134 -0.59946676)
(0 -0.8353047064 -1.813625027)
(0 -0.9521276749 -2.207528048)
(0 -0.01208862541 -0.868357506)
(0 -1.009740757e-13 -6.279963611e-15)
(0 -1.95490952e-13 -4.512264703e-14)
(0 -1.728932342e-13 -7.706044526e-14)
(0 -1.454965572e-13 -9.693209502e-14)
(0 -1.176369091e-13 -1.064460907e-13)
(0 -9.218995974e-14 -1.08282525e-13)
(0 -7.042143715e-14 -1.049995703e-13)
(0 -5.259376037e-14 -9.864092895e-14)
(0 -3.843600204e-14 -9.068489999e-14)
(0 -2.744780079e-14 -8.212789158e-14)
(0 -1.907306497e-14 -7.360071302e-14)
(0 -1.27878819e-14 -6.547550382e-14)
(0 -8.137547116e-15 -5.795033854e-14)
(0 -4.745965967e-15 -5.111106053e-14)
(0 -2.311515106e-15 -4.497425079e-14)
(0 -5.973094335e-16 -3.951600747e-14)
(0 5.799503119e-16 -3.469063541e-14)
(0 1.360550271e-15 -3.04424233e-14)
(0 1.850946279e-15 -2.671281483e-14)
(0 2.131357068e-15 -2.344458105e-14)
(0 2.261855025e-15 -2.058408259e-14)
(0 2.287155563e-15 -1.80823438e-14)
(0 2.240332746e-15 -1.589540953e-14)
(0 2.145675061e-15 -1.398428613e-14)
(0 2.020865843e-15 -1.231465662e-14)
(0 1.878640078e-15 -1.08564874e-14)
(0 1.728038795e-15 -9.583596908e-15)
(0 1.575356051e-15 -8.473227225e-15)
(0 1.424852051e-15 -7.505640524e-15)
(0 1.279288854e-15 -6.663751446e-15)
(0 1.140331752e-15 -5.932799244e-15)
(0 1.008849085e-15 -5.300059834e-15)
(0 8.85135346e-16 -4.754595685e-15)
(0 7.69076413e-16 -4.287040527e-15)
(0 6.602711462e-16 -3.889415465e-15)
(0 5.581201581e-16 -3.554973154e-15)
(0 4.618899171e-16 -3.278066902e-15)
(0 3.707583904e-16 -3.054041937e-15)
(0 2.838469374e-16 -2.879146424e-15)
(0 2.002420645e-16 -2.750460247e-15)
(0 1.190092337e-16 -2.665839912e-15)
(0 3.943400686e-17 -2.623878306e-15)
(0 0.3254604304 0.02263085709)
(0 0.3230898905 0.06637683337)
(0 0.3219263356 0.1137526713)
(0 0.3378959519 0.2092457719)
(0 0.2810817329 -0.04882405897)
(0 -0.5973303129 -1.314982254)
(0 -1.088688911 -2.390375121)
(0 -0.03268875754 -1.508933)
(0 -1.257804098e-13 -1.340532357e-14)
(0 -2.389685878e-13 -6.991618149e-14)
(0 -2.015164516e-13 -1.107899004e-13)
(0 -1.604246356e-13 -1.316389744e-13)
(0 -1.221098109e-13 -1.378842439e-13)
(0 -8.963001317e-14 -1.347618407e-13)
(0 -6.363156908e-14 -1.262888386e-13)
(0 -4.360205868e-14 -1.152153861e-13)
(0 -2.859486255e-14 -1.032834837e-13)
(0 -1.759891189e-14 -9.152140538e-14)
(0 -9.701938854e-15 -8.048599694e-14)
(0 -4.145090649e-15 -7.043828132e-14)
(0 -3.25778663e-16 -6.146222246e-14)
(0 2.220789154e-15 -5.354146677e-14)
(0 3.84625268e-15 -4.660719339e-14)
(0 4.813063891e-15 -4.056696677e-14)
(0 5.315142462e-15 -3.532148481e-14)
(0 5.4946142e-15 -3.077381087e-14)
(0 5.454896928e-15 -2.683405227e-14)
(0 5.270705043e-15 -2.342135603e-14)
(0 4.995589033e-15 -2.046438041e-14)
(0 4.667563832e-15 -1.790094689e-14)
(0 4.313284158e-15 -1.567729183e-14)
(0 3.951128833e-15 -1.374716112e-14)
(0 3.593472464e-15 -1.20708832e-14)
(0 3.248354878e-15 -1.061449162e-14)
(0 2.920705589e-15 -9.348930193e-15)
(0 2.613240096e-15 -8.249352239e-15)
(0 2.327114351e-15 -7.29451348e-15)
(0 2.062401105e-15 -6.466252307e-15)
(0 1.818435042e-15 -5.749048382e-15)
(0 1.594061291e-15 -5.129649949e-15)
(0 1.387812791e-15 -4.596760543e-15)
(0 1.198035271e-15 -4.140776583e-15)
(0 1.022973726e-15 -3.753568416e-15)
(0 8.608305969e-16 -3.428298419e-15)
(0 7.098032336e-16 -3.15927077e-15)
(0 5.681062183e-16 -2.941808429e-15)
(0 4.339826983e-16 -2.772153692e-15)