/*--------------------------------*- C++ -*----------------------------------*\
  =========                 |
  \\      /  F ield         | OpenFOAM: The Open Source CFD Toolbox
   \\    /   O peration     | Website:  https://openfoam.org
    \\  /    A nd           | Version:  6
     \\/     M anipulation  |
\*---------------------------------------------------------------------------*/
FoamFile
{
    version     2.0;
    format      ascii;
    class       volScalarField;
    location    "0.09";
    object      ViscousDissipation;
}
// * * * * * * * * * * * * * * * * * * * * * * * * * * * * * * * * * * * * * //

dimensions      [1 -1 -3 0 0 0 0];

internalField   nonuniform List<scalar> 
2500
(
19.6063579
11.5130607
0.9566349497
0.2128262195
0.08517918677
0.4953363745
0.4243956091
0.01510919486
0.02085512364
2.789380595e-24
2.963188426e-26
5.880805225e-26
9.517217039e-26
1.332275687e-25
1.687829482e-25
1.984925474e-25
2.201821036e-25
2.329091256e-25
2.368160238e-25
2.328591477e-25
2.224965141e-25
2.073979133e-25
1.892150869e-25
1.694256781e-25
1.492473118e-25
1.296084049e-25
1.111589034e-25
9.430498712e-26
7.925483259e-26
6.606626226e-26
5.469058192e-26
4.500968148e-26
3.686543654e-26
3.00816808e-26
2.447968296e-26
1.988832773e-26
1.61502157e-26
1.312477559e-26
1.068930016e-26
8.738623538e-27
7.183978938e-27
5.951424305e-27
4.980102639e-27
4.220511856e-27
3.632892415e-27
3.185795218e-27
2.854865248e-27
2.621872041e-27
2.474073531e-27
2.557986146e-27
4.008948017
5.847985368
1.494657603
0.3143448799
0.1319117362
0.1224686399
0.08499642438
0.04619916796
0.04404850492
2.84615654e-24
4.431942235e-26
7.316814329e-26
1.091782817e-25
1.466920219e-25
1.814803997e-25
2.102066763e-25
2.307411822e-25
2.422072435e-25
2.448193485e-25
2.395998912e-25
2.280590535e-25
2.119016679e-25
1.927978065e-25
1.722294302e-25
1.514081585e-25
1.312498021e-25
1.123882891e-25
9.52127849e-26
7.991508807e-26
6.65382406e-26
5.502081517e-26
4.523411448e-26
3.701145481e-26
3.016990584e-26
2.45254906e-26
1.990308896e-26
1.614228422e-26
1.310025707e-26
1.065264111e-26
8.693055731e-27
7.131850654e-27
5.894444835e-27
4.919521023e-27
4.157246181e-27
3.567621235e-27
3.119016593e-27
2.786915288e-27
2.552845827e-27
2.40449325e-27
3.7138854e-27
1.364442742
5.535016272
4.552265884
1.195888251
0.2045106015
0.06200374801
0.06952650559
0.02929141923
0.000610244772
2.964162955e-24
7.530821237e-26
1.036557838e-25
1.388712875e-25
1.751270626e-25
2.081705562e-25
2.347100311e-25
2.527224517e-25
2.614743953e-25
2.613312453e-25
2.534500315e-25
2.394445732e-25
2.210869566e-25
2.000799806e-25
1.779100132e-25
1.5577268e-25
1.345551369e-25
1.148564786e-25
9.702967812e-26
8.123217004e-26
6.747627958e-26
5.56743068e-26
4.567583208e-26
3.729668983e-26
3.034018658e-26
2.461170547e-26
1.992802549e-26
1.612264099e-26
1.304820561e-26
1.057701825e-26
8.600261037e-27
7.026514266e-27
5.779919471e-27
4.798241522e-27
4.030990365e-27
3.437698005e-27
2.986401312e-27
2.652351338e-27
2.416950198e-27
2.267769733e-27
5.957071531e-27
0.2308960855
2.391649792
6.052870834
3.570287098
0.8224175266
0.08896551499
0.03418002215
0.008369629016
0.004355564334
3.150791728e-24
1.272144159e-25
1.54460933e-25
1.880162554e-25
2.218335883e-25
2.51660671e-25
2.743159891e-25
2.879739288e-25
2.921430623e-25
2.874304894e-25
2.751998812e-25
2.572170261e-25
2.353462128e-25
2.113281833e-25
1.866443648e-25
1.62455761e-25
1.395975069e-25
1.186092065e-25
9.978400977e-26
8.322373553e-26
6.88917405e-26
5.665891861e-26
4.634092492e-26
3.77264925e-26
3.059772247e-26
2.474368967e-26
1.99688116e-26
1.609732698e-26
1.297503125e-26
1.046918642e-26
8.467303327e-27
6.875303484e-27
5.615413593e-27
4.62402615e-27
3.849672017e-27
3.251188414e-27
2.796123757e-27
2.459394135e-27
2.22218995e-27
2.071915914e-27
9.153832427e-27
0.6261917381
0.205244793
4.438650813
6.355216467
2.415209663
0.1913288918
0.006695834358
0.005133526959
0.0001741601271
3.424933374e-24
2.080380048e-25
2.328923566e-25
2.631470945e-25
2.924703481e-25
3.16698436e-25
3.328842181e-25
3.395382572e-25
3.365417841e-25
3.248493994e-25
3.061039653e-25
2.822619424e-25
2.552894093e-25
2.269528589e-25
1.987025508e-25
1.716313708e-25
1.464868387e-25
1.237148658e-25
1.035180098e-25
8.591607323e-26
7.080159246e-26
5.798647466e-26
4.723862655e-26
3.830901468e-26
3.095043457e-26
2.492958175e-26
2.003401284e-26
1.607540814e-26
1.289030014e-26
1.033917543e-26
8.304624136e-27
6.689015907e-27
5.412027151e-27
4.408227846e-27
3.624852336e-27
3.01982031e-27
2.560035786e-27
2.219968363e-27
1.980506131e-27
1.828799463e-27
1.311421719e-26
1.726467097
0.5938220585
1.553571744
5.81538811
5.304930855
0.7777136342
0.02514149938
0.008925050322
0.0005941321832
3.810491233e-24
3.310397773e-25
3.509820853e-25
3.748597544e-25
3.960623124e-25
4.107214414e-25
4.163506934e-25
4.120092033e-25
3.98122664e-25
3.761106645e-25
3.479573613e-25
3.158244605e-25
2.817591135e-25
2.475104419e-25
2.144431841e-25
1.835249515e-25
1.553612721e-25
1.302559244e-25
1.082797155e-25
8.93366929e-26
7.322168556e-26
5.96666687e-26
4.837578432e-26
3.905017218e-26
3.140435699e-26
2.517606236e-26
2.013118035e-26
1.606535997e-26
1.280337673e-26
1.019716094e-26
8.12311679e-27
6.479167035e-27
5.181807128e-27
4.163341736e-27
3.369398856e-27
2.756764476e-27
2.291547504e-27
1.947665289e-27
1.705628433e-27
1.552274779e-27
1.760126275e-26
2.636820255
2.888266707
0.1002175394
3.627067751
7.225148129
2.358096995
0.01354449402
0.01832269442
0.006401545049
4.344440063e-24
5.180483653e-25
5.282739007e-25
5.400515292e-25
5.467055227e-25
5.45091514e-25
5.335794237e-25
5.120928899e-25
4.818149947e-25
4.447405156e-25
4.032186349e-25
3.595771802e-25
3.158664801e-25
2.737220103e-25
2.343233322e-25
1.98419362e-25
1.663916107e-25
1.383330251e-25
1.141271487e-25
9.351865955e-26
7.617117494e-26
6.171146607e-26
4.976113164e-26
3.995770291e-26
3.196742308e-26
2.549183469e-26
2.027001116e-26
1.60779077e-26
1.272595383e-26
1.005570155e-26
7.936091751e-27
6.259707865e-27
4.939242825e-27
3.904304321e-27
3.098615054e-27
2.477620851e-27
2.006493345e-27
1.658500225e-27
1.413709169e-27
1.258595169e-27
2.23447755e-26
2.773611866
5.412240584
0.9604242203
1.246018462
7.065998864
5.189746595
0.3870733189
0.01276687463
0.09280925546
5.085044655e-24
8.054537625e-25
7.967430138e-25
7.857563721e-25
7.663890884e-25
7.370607972e-25
6.97663832e-25
6.494276777e-25
5.945165858e-25
5.355476188e-25
4.751582662e-25
4.156925606e-25
3.590218505e-25
3.064825024e-25
2.588978727e-25
2.16650472e-25
1.797761204e-25
1.480602474e-25
1.211244377e-25
9.849757578e-26
7.967021272e-26
6.413332405e-26
5.140387423e-26
4.103999095e-26
3.264843395e-26
2.588667317e-26
2.04614346e-26
1.612512383e-26
1.26711456e-26
9.928818493e-27
7.758339052e-27
6.046068943e-27
4.70029213e-27
3.647503523e-27
2.829236142e-27
2.199401724e-27
1.722102951e-27
1.369869219e-27
1.122266894e-27
9.653622468e-28
2.705693787e-26
1.905883303
6.392271466
3.731056456
0.06808150425
5.224137005
8.589364907
1.711847094
0.000449442921
0.3315233428
6.126307223e-24
1.255330642e-24
1.209651536e-24
1.155799602e-24
1.089689853e-24
1.012895789e-24
9.278978137e-25
8.377658816e-25
7.457659492e-25
6.549834348e-25
5.680378933e-25
4.869226899e-25
4.129633982e-25
3.468653642e-25
2.88814464e-25
2.385994514e-25
1.957331778e-25
1.595591581e-25
1.29337393e-25
1.043084486e-25
8.373778253e-26
6.694369422e-26
5.33126219e-26
4.230525382e-26
3.345638162e-26
2.637080424e-26
2.071700215e-26
1.621979863e-26
1.265282346e-26
9.831290342e-27
7.605380261e-27
5.854371077e-27
4.481554201e-27
3.409917391e-27
2.578538068e-27
1.939615108e-27
1.456062632e-27
1.099592415e-27
8.492178525e-28
6.905556688e-28
3.144920827e-26
0.801926902
4.895459881
6.776258477
1.284401454
2.227906363
10.83970283
4.626382161
0.05910936494
0.3359916812
7.628744888e-24
1.975345084e-24
1.857615491e-24
1.722528598e-24
1.571642694e-24
1.412828421e-24
1.252722583e-24
1.096636392e-24
9.486277973e-25
8.115818582e-25
6.873078828e-25
5.766735492e-25
4.797736727e-25
3.961155007e-25
3.247993921e-25
2.646786557e-25
2.144896988e-25
1.729501907e-25
1.38827432e-25
1.109815417e-25
8.838890054e-26
7.015111249e-26
5.549403338e-26
4.376051289e-26
3.439959498e-26
2.695413349e-26
2.104813895e-26
1.637468357e-26
1.268483451e-26
9.777838755e-27
7.492619487e-27
5.700542717e-27
4.299355927e-27
3.208173083e-27
2.363372665e-27
1.715279651e-27
1.225513523e-27
8.648991221e-28
6.11852307e-28
4.515052211e-28
3.524964984e-26
0.06348443205
2.091345414
7.848466475
5.001367417
0.1344817839
9.317839177
8.730599805
0.614999213
0.3036035196
9.769515546e-24
3.15264186e-24
2.899586438e-24
2.608172553e-24
2.301069014e-24
1.99886265e-24
1.71405425e-24
1.45361116e-24
1.220802656e-24
1.016454033e-24
8.397952149e-25
6.89051707e-25
5.618692083e-25
4.556214532e-25
3.676290968e-25
2.953082736e-25
2.362638599e-25
1.883405872e-25
1.49643451e-25
1.185369883e-25
9.363104082e-26
7.375877293e-26
5.795108948e-26
4.541027456e-26
3.548464632e-26
2.764526671e-26
2.14652145e-26
1.660157529e-26
1.278007956e-26
9.782191575e-27
7.434388304e-27
5.599346503e-27
4.168761473e-27
3.057541426e-27
2.199149443e-27
1.541895829e-27
1.046014279e-27
6.813841266e-28
4.25786581e-28
2.638404389e-28
3.821971438e-26
0.08260687815
0.3384317515
5.604848207
9.312645638
1.477742144
4.561292868
12.16730201
2.520785897
2.981126199
1.331446817e-23
5.191979658e-24
4.633968252e-24
4.025279364e-24
3.423176891e-24
2.866879242e-24
2.373440861e-24
1.947243018e-24
1.585908989e-24
1.283769106e-24
1.033826526e-24
8.288469447e-25
6.619414949e-25
5.268548524e-25
4.18081203e-25
3.308807393e-25
2.612407431e-25
2.058083232e-25
1.618114227e-25
1.269780908e-25
9.945976556e-26
7.776158289e-26
6.068099673e-26
4.725492631e-26
3.671502536e-26
2.84503361e-26
2.197644892e-26
1.6910262e-26
1.29494784e-26
9.856056177e-27
7.44292215e-27
5.563356718e-27
4.102550229e-27
2.970915429e-27
2.098814884e-27
1.432426242e-27
9.305225214e-28
5.61990336e-28
3.039468743e-28
1.404753403e-28
4.016947303e-26
0.1020915944
0.01911007836
2.040416975
10.61799168
7.094299887
0.4925008884
13.30327061
6.71072146
36.80186636
1.925914393e-23
8.973429354e-24
7.637981263e-24
6.34944141e-24
5.176433442e-24
4.164600906e-24
3.320324038e-24
2.630551629e-24
2.07475078e-24
1.631072151e-24
1.279190196e-24
1.001395576e-24
7.828201375e-25
6.112628267e-25
4.768585413e-25
3.717102084e-25
2.895399463e-25
2.253817807e-25
1.753217444e-25
1.362834024e-25
1.058536574e-25
8.214278045e-26
6.367278681e-26
4.928890277e-26
3.808963119e-26
2.937168078e-26
2.258670516e-26
1.730738496e-26
1.320087733e-26
1.000806046e-26
7.527327704e-27
5.601948857e-27
4.110225727e-27
2.957836277e-27
2.071893479e-27
1.396349687e-27
8.884599103e-28
5.160827906e-28
2.55650077e-28
9.069381576e-29
4.097030774e-26
0.08258885271
0.08386183074
0.2222132891
6.926753659
14.12989431
1.821204733
11.0518438
13.72607031
244.5730372
2.902265344e-23
1.604123951e-23
1.29508296e-23
1.022749893e-23
7.946779081e-24
6.116121581e-24
4.682041236e-24
3.574503019e-24
2.726136675e-24
2.079167899e-24
1.58678808e-24
1.212249523e-24
9.272236162e-25
7.100988138e-25
5.444808023e-25
4.179656147e-25
3.211751126e-25
2.470155415e-25
1.901147502e-25
1.463979305e-25
1.127688084e-25
8.687030175e-26
6.690475438e-26
5.149873671e-26
3.960118092e-26
3.040647171e-26
2.329625254e-26
1.779529765e-26
1.353797997e-26
1.024274107e-26
7.692619615e-27
5.720378393e-27
4.197131265e-27
3.023641241e-27
2.123663619e-27
1.438860885e-27
9.249316558e-28
5.486839512e-28
2.858508683e-28
1.194045714e-28
4.056416492e-26
0.07658856245
0.1000047567
0.03145481478
2.094941656
16.41976729
10.99605124
5.909195573
22.84157268
1030.380857
4.724891649e-23
2.98798044e-23
2.258907839e-23
1.679113096e-23
1.235383655e-23
9.054176055e-24
6.63417081e-24
4.870164827e-24
3.586430212e-24
2.651138881e-24
1.96777373e-24
1.466564347e-24
1.097364645e-24
8.241815042e-25
6.211421593e-25
4.695883421e-25
3.560068923e-25
2.70563594e-25
2.060653335e-25
1.572241175e-25
1.201333135e-25
9.189321308e-26
7.034196539e-26
5.386117706e-26
4.123468676e-26
3.154541372e-26
2.409962147e-26
1.837103358e-26
1.395940507e-26
1.055967687e-26
7.938919237e-27
5.919036709e-27
4.363755988e-27
3.168813439e-27
2.254544941e-27
1.560289571e-27
1.040171725e-27
6.599395792e-28
3.946229704e-28
2.26632544e-28
3.896862743e-26
0.0813531419
0.08831069095
0.1342993562
0.0564815053
10.58651982
24.37662283
1.895851942
30.61307902
3113.620639
8.528848967e-23
5.857115601e-23
4.052229831e-23
2.800713146e-23
1.936843941e-23
1.345363528e-23
9.406148964e-24
6.62667641e-24
4.706456239e-24
3.369908657e-24
2.431951014e-24
1.768131888e-24
1.29439289e-24
9.535831534e-25
7.06540279e-25
5.261995727e-25
3.93693046e-25
2.957524295e-25
2.229682686e-25
1.686136105e-25
1.278424299e-25
9.713865565e-26
7.393415812e-26
5.634162048e-26
4.296620123e-26
3.277169383e-26
2.498469736e-26
1.902551449e-26
1.445799044e-26
1.095287568e-26
8.26091438e-27
6.192975184e-27
4.605315411e-27
3.388611379e-27
2.459769846e-27
1.75580728e-27
1.229278492e-27
8.448771255e-28
5.769343791e-28
4.073052274e-28
3.627728412e-26
0.08557002642
0.08433644203
0.1356081508
0.2110201505
2.817206485
29.35525017
7.112732883
31.28199774
7146.784876
1.673522079e-22
1.192429332e-22
7.411040332e-23
4.711313579e-23
3.041880899e-23
1.994153838e-23
1.327038762e-23
8.960118558e-24
6.133929901e-24
4.253750037e-24
2.985278019e-24
2.118043148e-24
1.517694974e-24
1.097268896e-24
7.996926759e-25
5.870076396e-25
4.336419951e-25
3.221577817e-25
2.405264642e-25
1.803611736e-25
1.357552482e-25
1.025098642e-25
7.761443164e-26
5.889315197e-26
4.476206368e-26
3.406036714e-26
2.593221535e-26
1.974313823e-26
1.502046404e-26
1.141052089e-26
8.647673964e-27
6.531780701e-27
4.911680618e-27
3.67304483e-27
2.729399267e-27
2.01547654e-27
1.482291205e-27
1.09350361e-27
8.227610578e-28
6.513767598e-28
3.265515918e-26
0.08167885636
0.08670214744
0.08585762699
0.2595690153
0.0321222082
18.56384591
25.33768946
21.95734199
12892.50307
3.224609193e-22
2.457804573e-22
1.359771914e-22
7.893607105e-23
4.736336722e-23
2.923155298e-23
1.849624568e-23
1.196750283e-23
7.899938399e-24
5.309529568e-24
3.626560707e-24
2.51309128e-24
1.764131394e-24
1.252736291e-24
8.987688363e-25
6.507312809e-25
4.74978602e-25
3.491898741e-25
2.583448845e-25
1.92202328e-25
1.436938422e-25
1.078858807e-25
8.129914811e-26
6.145650501e-26
4.657888595e-26
3.537836972e-26
2.691581004e-26
2.050187368e-26
1.562758881e-26
1.191516701e-26
9.082892664e-27
6.919865814e-27
5.267709429e-27
4.007242025e-27
3.048720841e-27
2.324675029e-27
1.78463533e-27
1.391267581e-27
1.117561152e-27
9.443101682e-28
2.832929194e-26
0.07342393458
0.08281152825
0.06823631626
0.1458907652
0.2422497822
6.14853921
42.04133628
8.062653859
18717.29977
5.521293977e-22
4.950832071e-22
2.439704397e-22
1.291945276e-22
7.204935384e-23
4.190790187e-23
2.525243017e-23
1.568380348e-23
1.000012418e-23
6.524461164e-24
4.343840034e-24
2.944197215e-24
2.02735993e-24
1.415732332e-24
1.000977617e-24
7.155589955e-25
5.165325781e-25
3.760926074e-25
2.759330512e-25
2.038163443e-25
1.514458462e-25
1.131235547e-25
8.488944191e-26
6.396121819e-26
4.836448094e-26
3.668531288e-26
2.790273954e-26
2.127395577e-26
1.625485325e-26
1.244443979e-26
9.545607346e-27
7.337204191e-27
5.654000991e-27
4.372222136e-27
3.39903727e-27
2.664897529e-27
2.117935703e-27
1.719881095e-27
1.443103492e-27
1.267910131e-27
2.357491048e-26
0.06392395098
0.07223829402
0.07888190284
0.0984145039
0.4381300139
0.9022459529
44.58146612
0.3115738724
22020.85405
1.105220215e-21
9.222222438e-22
4.119139386e-22
2.013130295e-22
1.052317457e-22
5.804952727e-23
3.347128818e-23
2.003111285e-23
1.237510796e-23
7.858470694e-24
5.111430623e-24
3.395296717e-24
2.297448593e-24
1.580142941e-24
1.102554851e-24
7.791659611e-25
5.568599009e-25
4.019617994e-25
2.927187082e-25
2.148359402e-25
1.5877121e-25
1.180622721e-25
8.827461098e-26
6.63281688e-26
5.005985677e-26
3.793514279e-26
2.885534016e-26
2.202721571e-26
1.687372685e-26
1.297224688e-26
1.001138121e-26
7.760499005e-27
6.048054797e-27
4.746048651e-27
3.758816258e-27
3.014903678e-27
2.461162862e-27
2.058465095e-27
1.778612339e-27
1.601467286e-27
1.869798973e-26
0.05170959879
0.05713258201
0.08216439183
0.07136833087
0.2979894976
0.5560025162
34.79121307
3.772869556
20712.86235
2.879260396e-21
1.499087715e-21
6.316227667e-22
2.92082646e-22
1.454115654e-22
7.688565801e-23
4.273808521e-23
2.478132149e-23
1.489782204e-23
9.240096022e-24
5.888788524e-24
3.84318281e-24
2.560991037e-24
1.738148196e-24
1.19889232e-24
8.388067529e-25
5.94305326e-25
4.257860639e-25
3.080742488e-25
2.248644055e-25
1.65413459e-25
1.225315599e-25
9.133745532e-26
6.847350518e-26
5.160227259e-26
3.907864504e-26
2.973317928e-26
2.272700521e-26
1.745343198e-26
1.347044537e-26
1.045389745e-26
8.164722745e-27
6.425770055e-27
5.105297682e-27
4.105134563e-27
3.352143012e-27
2.792043267e-27
2.384948365e-27
2.102158184e-27
1.923143693e-27
1.401529735e-26
0.03653518898
0.04147935033
0.06772605155
0.07691560901
0.1189257808
1.465751973
24.74915004
12.95401546
16174.35727
5.684226025e-21
2.119668963e-21
8.731601086e-22
3.914978726e-22
1.887054775e-22
9.67366994e-23
5.227111008e-23
2.955208876e-23
1.737453126e-23
1.056847666e-23
6.622223698e-24
4.258716685e-24
2.8018927e-24
1.880710827e-24
1.284834334e-24
8.914934416e-25
6.27109078e-25
4.465110189e-25
3.213557992e-25
2.334998429e-25
1.711151449e-25
1.263612983e-25
9.396133836e-26
7.031378928e-26
5.292919296e-26
4.006664774e-26
3.049577139e-26
2.333858742e-26
1.796311072e-26
1.39108489e-26
1.084684896e-26
8.524917926e-27
6.763177489e-27
5.426735494e-27
4.415312445e-27
3.654355217e-27
3.088632744e-27
2.677620479e-27
2.392195856e-27
2.211501228e-27
9.833274206e-27
0.02090991907
0.02763214671
0.04558295902
0.1005178012
0.04478006451
2.270471362
15.1692414
24.0031308
10014.25797
7.047135233e-21
2.692708349e-21
1.101044995e-21
4.859461336e-22
2.295747946e-22
1.152232558e-22
6.099962819e-23
3.384240142e-23
1.956287126e-23
1.17229166e-23
7.250054158e-24
4.609625301e-24
3.002896904e-24
1.998413512e-24
1.355140605e-24
9.342540175e-25
6.535529738e-25
4.631232661e-25
3.319525021e-25
2.403648763e-25
1.756363716e-25
1.293937688e-25
9.603841711e-26
7.177193136e-26
5.398280949e-26
4.085364893e-26
3.110562161e-26
2.382978605e-26
1.837419799e-26
1.4267401e-26
1.116596229e-26
8.818106668e-27
7.038259368e-27
5.68906755e-27
4.668606111e-27
3.901217554e-27
3.330928544e-27
2.916716867e-27
2.629130015e-27
2.447054317e-27
6.427244528e-27
0.008279666118
0.01700832127
0.02534852305
0.1170549411
0.07956169836
2.470529711
8.14266842
33.86122665
4125.342181
5.853806499e-21
3.132813756e-21
1.278798838e-21
5.603663332e-22
2.617216144e-22
1.296447425e-22
6.773085678e-23
3.710908045e-23
2.120793767e-23
1.25802926e-23
7.711160065e-24
4.864775347e-24
3.147754782e-24
2.082578403e-24
1.405073531e-24
9.644459908e-25
6.72131193e-25
4.747454853e-25
3.393408836e-25
2.45138735e-25
1.78774472e-25
1.314962834e-25
9.74781818e-26
7.278329552e-26
5.471465589e-26
4.140148939e-26
3.153128167e-26
2.417362229e-26
1.866276331e-26
1.451830147e-26
1.139096229e-26
9.02513049e-27
7.232691347e-27
5.874602521e-27
4.847809594e-27
4.075897321e-27
3.502383025e-27
3.085902883e-27
2.796777796e-27
2.613718597e-27
4.022480491e-27
0.001412092006
0.01124287338
0.01487841288
0.1171698351
0.1630919728
2.279285315
6.289754357
38.73336245
502.1475653
4.108493436e-21
3.369149353e-21
1.37580252e-21
6.014308145e-22
2.794793335e-22
1.375785306e-22
7.140944841e-23
3.888069649e-23
2.209318059e-23
1.303823963e-23
7.955763855e-24
4.999291075e-24
3.223706608e-24
2.126495985e-24
1.431020054e-24
9.800781996e-25
6.81720827e-25
4.807292283e-25
3.431368798e-25
2.475874667e-25
1.803822951e-25
1.325728023e-25
9.821524519e-26
7.33012294e-26
5.508976092e-26
4.168263682e-26
3.175006486e-26
2.435064235e-26
1.88115644e-26
1.464785965e-26
1.150727415e-26
9.132235718e-27
7.333336125e-27
5.970673025e-27
4.940617301e-27
4.166368128e-27
3.59118363e-27
3.173526103e-27
2.883601073e-27
2.700030148e-27
2.778548392e-27
0.001412086845
0.0112428654
0.01487840455
0.1171697922
0.1630919119
2.279284961
6.289751713
38.73335655
502.1475235
4.108493002e-21
3.369149123e-21
1.375802454e-21
6.014308038e-22
2.794793399e-22
1.375785404e-22
7.140945715e-23
3.888070316e-23
2.209318537e-23
1.303824296e-23
7.955766152e-24
4.999292659e-24
3.223707708e-24
2.126496758e-24
1.431020603e-24
9.800785948e-25
6.817211152e-25
4.807294412e-25
3.431370388e-25
2.475875864e-25
1.80382386e-25
1.325728716e-25
9.821529813e-26
7.330126985e-26
5.508979172e-26
4.16826601e-26
3.175008223e-26
2.435065506e-26
1.881157341e-26
1.464786571e-26
1.150727786e-26
9.132237557e-27
7.333336468e-27
5.97067218e-27
4.940615517e-27
4.166365611e-27
3.59118055e-27
3.173522603e-27
2.883597277e-27
2.700026235e-27
2.778139984e-27
0.008279645821
0.01700829329
0.02534848789
0.1170548209
0.07956162796
2.470528492
8.14266356
33.86121059
4125.34111
5.853804932e-21
3.13281322e-21
1.278798648e-21
5.603662968e-22
2.617216306e-22
1.2964477e-22
6.773088181e-23
3.710909974e-23
2.120795156e-23
1.258030231e-23
7.711166783e-24
4.864779992e-24
3.147758014e-24
2.082580675e-24
1.405075148e-24
9.644471568e-25
6.721320448e-25
4.747461153e-25
3.393413547e-25
2.451390904e-25
1.78774742e-25
1.314964896e-25
9.747833962e-26
7.278341627e-26
5.471474798e-26
4.14015591e-26
3.153133379e-26
2.417366051e-26
1.866279049e-26
1.451831985e-26
1.139097364e-26
9.025136228e-27
7.232692604e-27
5.874600213e-27
4.847804468e-27
4.07588999e-27
3.502374e-27
3.085892595e-27
2.796766617e-27
2.613707063e-27
4.021259707e-27
0.02090987204
0.02763208892
0.04558287455
0.1005176325
0.04477996314
2.270469672
15.16923527
24.00311488
10014.25336
7.047133215e-21
2.692707374e-21
1.101044638e-21
4.859460541e-22
2.295748114e-22
1.152232958e-22
6.099966633e-23
3.384243138e-23
1.956289306e-23
1.172293194e-23
7.250064816e-24
4.609632697e-24
3.002902067e-24
1.998417152e-24
1.355143204e-24
9.342558974e-25
6.535543516e-25
4.631242883e-25
3.319532686e-25
2.403654563e-25
1.756368136e-25
1.293941072e-25
9.603867685e-26
7.177213067e-26
5.398296193e-26
4.08537647e-26
3.11057085e-26
2.382985006e-26
1.837424378e-26
1.426743224e-26
1.11659819e-26
8.818116962e-27
7.038262212e-27
5.689064455e-27
4.668598311e-27
3.901206067e-27
3.330914219e-27
2.916700423e-27
2.629112074e-27
2.447035765e-27
6.425224693e-27
0.03653510444
0.04147925263
0.06772590768
0.0769154258
0.1189253889
1.465750797
24.74914391
12.954009
16174.3487
5.684222274e-21
2.119667334e-21
8.73159543e-22
3.914977355e-22
1.88705486e-22
9.673674562e-23
5.227115721e-23
2.955212674e-23
1.737455926e-23
1.056849653e-23
6.622237581e-24
4.258726366e-24
2.801899488e-24
1.880715635e-24
1.284837781e-24
8.914959469e-25
6.271109225e-25
4.465123936e-25
3.213568348e-25
2.3350063e-25
1.711157472e-25
1.263617614e-25
9.396169524e-26
7.031406428e-26
5.29294042e-26
4.006680893e-26
3.049589302e-26
2.333867762e-26
1.796317581e-26
1.391089389e-26
1.084687781e-26
8.524933829e-27
6.763183003e-27
5.426732702e-27
4.415303055e-27
3.654340641e-27
3.088614166e-27
2.677598906e-27
2.392172161e-27
2.211476641e-27
9.830477553e-27
0.05170947262
0.05713243719
0.08216421631
0.07136811985
0.2979886703
0.5560021093
34.79119502
3.772874646
20712.85187
2.87925377e-21
1.499085388e-21
6.316220284e-22
2.9208246e-22
1.454115626e-22
7.688570582e-23
4.273813753e-23
2.478136476e-23
1.489785438e-23
9.240119161e-24
5.888804794e-24
3.843194216e-24
2.560999077e-24
1.738153922e-24
1.198896449e-24
8.388097712e-25
5.943075618e-25
4.257877402e-25
3.08075519e-25
2.248653764e-25
1.654142062e-25
1.225321375e-25
9.133790289e-26
6.847385194e-26
5.160254046e-26
3.90788507e-26
2.973333556e-26
2.272712207e-26
1.745351724e-26
1.347050523e-26
1.045393685e-26
8.164745647e-27
6.425779679e-27
5.10529665e-27
4.105125034e-27
3.352126781e-27
2.792021846e-27
2.384923047e-27
2.102130099e-27
1.923114397e-27
1.401175504e-26
0.06392378156
0.07223809671
0.07888174123
0.09841421693
0.4381295333
0.9022416293
44.58144402
0.3115698131
22020.8498
1.105216962e-21
9.222196944e-22
4.119131913e-22
2.013128307e-22
1.05231736e-22
5.804957464e-23
3.347134297e-23
2.003115914e-23
1.237514293e-23
7.858495884e-24
5.111448425e-24
3.395309259e-24
2.297457482e-24
1.580149309e-24
1.102559475e-24
7.791693658e-25
5.568624416e-25
4.019637185e-25
2.92720173e-25
2.148370679e-25
1.587720837e-25
1.180629521e-25
8.827514136e-26
6.632858243e-26
5.00601785e-26
3.793539163e-26
2.885553083e-26
2.20273597e-26
1.687383325e-26
1.297232291e-26
1.001143266e-26
7.760530557e-27
6.048070256e-27
4.746051137e-27
3.758808354e-27
3.014887541e-27
2.461140321e-27
2.058437728e-27
1.778581534e-27
1.601434907e-27
1.869374188e-26
0.07342371675
0.08281127259
0.0682361345
0.1458903284
0.242249987
6.148524551
42.04134985
8.062629915
18717.31064
5.521273777e-22
4.950819533e-22
2.439699042e-22
1.291943497e-22
7.204934214e-23
4.190794862e-23
2.52524861e-23
1.568385127e-23
1.000016044e-23
6.524487333e-24
4.343858573e-24
2.944210323e-24
2.027369269e-24
1.415739068e-24
1.000982546e-24
7.15562655e-25
5.165353329e-25
3.760947066e-25
2.759346675e-25
2.03817599e-25
1.514468263e-25
1.131243234e-25
8.489004607e-26
6.396169298e-26
4.836485317e-26
3.668560321e-26
2.790296409e-26
2.127412724e-26
1.625498173e-26
1.244453335e-26
9.545672493e-27
7.337246214e-27
5.654024214e-27
4.372230124e-27
3.399032991e-27
2.66488348e-27
2.117914018e-27
1.719853627e-27
1.443071887e-27
1.267876538e-27
2.357000613e-26
0.08167859282
0.08670183202
0.08585726553
0.2595680181
0.03212205895
18.56383132
25.33769993
21.95734077
12892.51321
3.224602485e-22
2.457799385e-22
1.359767566e-22
7.893589521e-23
4.736335346e-23
2.923160048e-23
1.849630284e-23
1.196755137e-23
7.899974971e-24
5.309555834e-24
3.626579283e-24
2.513104437e-24
1.764140812e-24
1.252743132e-24
8.98773886e-25
6.507350671e-25
4.749814813e-25
3.491920907e-25
2.583466082e-25
1.92203679e-25
1.436949072e-25
1.078867234e-25
8.129981617e-26
6.145703455e-26
4.657930476e-26
3.537869944e-26
2.691606769e-26
2.050207279e-26
1.562774021e-26
1.191527942e-26
9.082973167e-27
6.919920196e-27
5.26774245e-27
4.007257636e-27
3.048722348e-27
2.324665238e-27
1.784616658e-27
1.391242149e-27
1.11753086e-27
9.442774188e-28
2.832378901e-26
0.08556976267
0.08433607384
0.1356072656
0.2110191697
2.817205725
29.35525462
7.112738265
31.28201039
7146.788421
1.673534906e-22
1.192425488e-22
7.410990081e-23
4.711293804e-23
3.04187977e-23
1.994159119e-23
1.327044753e-23
8.960167696e-24
6.133966086e-24
4.253775667e-24
2.985296029e-24
2.118055901e-24
1.517704143e-24
1.097275608e-24
7.996976809e-25
5.870114347e-25
4.336449152e-25
3.22160056e-25
2.405282527e-25
1.803625905e-25
1.357563766e-25
1.025107659e-25
7.761515322e-26
5.88937293e-26
4.476252464e-26
3.406073369e-26
2.593250494e-26
1.974336484e-26
1.502063897e-26
1.141065331e-26
8.647771388e-27
6.531849292e-27
4.911725482e-27
3.67307023e-27
2.729408799e-27
2.015473278e-27
1.482277821e-27
1.093482474e-27
8.227343208e-28
6.513470356e-28
3.264912431e-26
0.08135302279
0.08831033667
0.1342982765
0.0564818138
10.58652515
24.3766392
1.895850402
30.61308785
3113.620213
8.529041332e-23
5.85700257e-23
4.052158956e-23
2.800692433e-23
1.936844988e-23
1.345370204e-23
9.406213925e-24
6.626726066e-24
4.706491354e-24
3.369932968e-24
2.431967921e-24
1.768143844e-24
1.29440153e-24
9.535895382e-25
7.065450967e-25
5.262032742e-25
3.936959326e-25
2.957547074e-25
2.229700826e-25
1.686150647e-25
1.278436009e-25
9.713960132e-26
7.393492263e-26
5.634223828e-26
4.296669948e-26
3.27720942e-26
2.498501727e-26
1.902576806e-26
1.445818918e-26
1.095302902e-26
8.261030086e-27
6.193059686e-27
4.605374067e-27
3.388648688e-27
2.459789632e-27
1.755812836e-27
1.229272711e-27
8.448626045e-28
5.769135039e-28
4.072807768e-28
3.627079246e-26
0.07658886529
0.1000048656
0.03145443744
2.094949348
16.41978268
10.99604474
5.909201896
22.84157969
1030.38067
4.724788955e-23
2.987740644e-23
2.258826919e-23
1.6791007e-23
1.235390484e-23
9.054266372e-24
6.634241908e-24
4.870214133e-24
3.586463281e-24
2.651161147e-24
1.96778904e-24
1.466575174e-24
1.097372528e-24
8.24187402e-25
6.211466754e-25
4.695918664e-25
3.560096834e-25
2.705658293e-25
2.060671383e-25
1.572255829e-25
1.201345078e-25
9.189418838e-26
7.034276233e-26
5.38618278e-26
4.123521707e-26
3.154584447e-26
2.409996965e-26
1.837131314e-26
1.395962749e-26
1.055985165e-26
7.939054272e-27
5.919138571e-27
4.363830189e-27
3.168864636e-27
2.254577116e-27
1.560306183e-27
1.040175841e-27
6.599339893e-28
3.946102756e-28
2.266156297e-28
3.896176228e-26
0.08258997864
0.08386257668
0.2222160975
6.926782622
14.12988487
1.82118679
11.05187318
13.7260546
244.5727204
2.90152465e-23
1.603857867e-23
1.295043538e-23
1.022761174e-23
7.946936075e-24
6.116236612e-24
4.68211529e-24
3.574549491e-24
2.726166245e-24
2.079187323e-24
1.586801348e-24
1.212258957e-24
9.272305743e-25
7.101041086e-25
5.444849329e-25
4.179688986e-25
3.211777599e-25
2.470176967e-25
1.901165166e-25
1.463993847e-25
1.127700085e-25
8.687129332e-26
6.690557361e-26
5.149941282e-26
3.960173779e-26
3.040692896e-26
2.329662644e-26
1.779560171e-26
1.353822544e-26
1.024293736e-26
7.692774608e-27
5.7204987e-27
4.197222462e-27
3.023708064e-27
2.123710138e-27
1.438890661e-27
9.249478758e-28
5.486895529e-28
2.858486367e-28
1.19397429e-28
4.055701729e-26
0.1020936941
0.0191104058
2.040441713
10.61801456
7.094257695
0.4925142421
13.30329658
6.710684259
36.80194073
1.925301416e-23
8.973820904e-24
7.6386198e-24
6.349847632e-24
5.176657494e-24
4.164722623e-24
3.320391957e-24
2.630591242e-24
2.074775135e-24
1.631087989e-24
1.279201081e-24
1.001403443e-24
7.828260686e-25
6.112674494e-25
4.76862234e-25
3.717132102e-25
2.895424155e-25
2.253838277e-25
1.753234494e-25
1.362848264e-25
1.058548482e-25
8.214377615e-26
6.367361874e-26
4.928959681e-26
3.809020892e-26
2.937216031e-26
2.258710176e-26
1.730771149e-26
1.320114467e-26
1.000827778e-26
7.527502772e-27
5.60208823e-27
4.110334967e-27
2.957920127e-27
2.071956029e-27
1.396394532e-27
8.884902947e-28
5.161017437e-28
2.556605219e-28
9.069862755e-29
4.09629757e-26
0.0826085017
0.3384411966
5.604895333
9.31262221
1.477709463
4.561344446
12.16729919
2.520763924
2.981188236
1.331954565e-23
5.194947166e-24
4.635058792e-24