/*--------------------------------*- C++ -*----------------------------------*\
  =========                 |
  \\      /  F ield         | OpenFOAM: The Open Source CFD Toolbox
   \\    /   O peration     | Website:  https://openfoam.org
    \\  /    A nd           | Version:  6
     \\/     M anipulation  |
\*---------------------------------------------------------------------------*/
FoamFile
{
    version     2.0;
    format      ascii;
    class       surfaceScalarField;
    location    "0.07";
    object      alphaPhi0.phase1;
}
// * * * * * * * * * * * * * * * * * * * * * * * * * * * * * * * * * * * * * //

dimensions      [0 3 -1 0 0 0 0];

internalField   nonuniform List<scalar> 
4900
(
-2.340367251e-21
-1.263666372e-20
1.309452601e-21
-6.75153721e-21
4.684218487e-22
-7.876134416e-22
5.302140914e-24
1.908122838e-23
7.957176615e-28
3.877935776e-26
3.262509679e-28
3.863806101e-28
3.26084517e-28
1.664509005e-31
-2.351092425e-17
1.237805255e-19
-5.990978864e-21
9.813693909e-25
-5.940032836e-21
-5.094603293e-23
-5.839741837e-21
-1.002941724e-22
-5.693773742e-21
-1.459752285e-22
-5.507061327e-21
-1.867232677e-22
-5.285538539e-21
-2.215372579e-22
-5.035771647e-21
-2.497849336e-22
-4.764575479e-21
-2.712177435e-22
-4.47866303e-21
-2.859375174e-22
-4.184356503e-21
-2.943350391e-22
-3.887372975e-21
-2.970154323e-22
-3.592686312e-21
-2.947218985e-22
-3.304458811e-21
-2.882660025e-22
-3.026031064e-21
-2.784694453e-22
-2.75995643e-21
-2.66119452e-22
-2.508066516e-21
-2.519377705e-22
-2.271555444e-21
-2.365618838e-22
-2.051072818e-21
-2.205363017e-22
-1.846817702e-21
-2.043115633e-22
-1.658628139e-21
-1.882486857e-22
-1.486062739e-21
-1.726270973e-22
-1.328472435e-21
-1.57654473e-22
-1.18506169e-21
-1.434772806e-22
-1.054939283e-21
-1.30191201e-22
-9.371593495e-22
-1.178508773e-22
-8.307536501e-22
-1.064786809e-22
-7.347562067e-22
-9.607234994e-23
-6.482214472e-22
-8.661147726e-23
-5.702369624e-22
-7.806289887e-23
-4.999318759e-22
-7.038508138e-23
-4.36481707e-22
-6.353162842e-23
-3.791104816e-22
-5.745403305e-23
-3.270907207e-22
-5.21037999e-23
-2.797418225e-22
-4.743405152e-23
-2.364272519e-22
-4.340072147e-23
-1.965508589e-22
-3.996342441e-23
-1.595525703e-22
-3.708608372e-23
-1.249036148e-22
-3.473739781e-23
-9.210132961e-23
-3.28912583e-23
-6.066333145e-23
-3.152738593e-23
-3.011994042e-23
-3.063307767e-23
-3.020980976e-23
-8.451455576e-21
-2.053398407e-20
-2.089128138e-21
-1.48007449e-20
6.609330697e-22
-4.775002988e-21
2.56884467e-22
3.540359333e-24
1.041812746e-24
5.312100588e-23
9.722684032e-27
2.93707898e-26
9.711979222e-27
9.04363826e-30
2.041010514e-18
4.181976957e-20
-6.042749671e-21
5.696512532e-26
-5.989371753e-21
-1.043302874e-22
-5.885416563e-21
-2.042626329e-22
-5.734516776e-21
-2.968951171e-22
-5.541872151e-21
-3.793944955e-22
-5.313784965e-21
-4.496574318e-22
-5.057204958e-21
-5.064042379e-22
-4.779297198e-21
-5.491710335e-22
-4.487063567e-21
-5.78222825e-22
-4.187040602e-21
-5.944157306e-22
-3.885083489e-21
-5.990362151e-22
-3.586234514e-21
-5.936403671e-22
-3.294666181e-21
-5.799095281e-22
-3.013684671e-21
-5.595317089e-22
-2.745777928e-21
-5.341123649e-22
-2.492693345e-21
-5.051137866e-22
-2.255532108e-21
-4.738196572e-22
-2.034849879e-21
-4.413200029e-22
-1.830756217e-21
-4.085114598e-22
-1.643007584e-21
-3.761081354e-22
-1.471090842e-21
-3.446590552e-22
-1.314295717e-21
-3.145690247e-22
-1.17177588e-21
-2.861205609e-22
-1.042599068e-21
-2.594952767e-22
-9.257871385e-22
-2.347936923e-22
-8.203472141e-22
-2.120529107e-22
-7.252951654e-22
-1.912619199e-22
-6.396726586e-22
-1.723745159e-22
-5.625589106e-22
-1.553199824e-22
-4.930781783e-22
-1.400117452e-22
-4.304038673e-22
-1.263542585e-22
-3.737600124e-22
-1.142483857e-22
-3.224207505e-22
-1.035955291e-22
-2.757082893e-22
-9.430074029e-23
-2.329897734e-22
-8.627501621e-23
-1.936733609e-22
-7.943695819e-23
-1.572037533e-22
-7.371394654e-23
-1.230573735e-22
-6.904295903e-23
-9.073739352e-23
-6.537113948e-23
-5.976903008e-23
-6.265616634e-23
-2.969665874e-23
-6.086618443e-23
-5.997742189e-23
-1.431562509e-20
-2.336995808e-20
-7.331341227e-21
-2.078024935e-20
-2.145670006e-21
-1.097913931e-20
-2.801811721e-23
-1.477468226e-21
4.445367625e-24
1.923414191e-22
6.729350821e-26
6.477326837e-25
-1.560684808e-22
1.561355424e-22
9.893344416e-20
-7.332791913e-20
-6.146530615e-21
-1.916855243e-24
-6.0892823e-21
-1.615837922e-22
-5.978034887e-21
-3.155211003e-22
-5.817005649e-21
-4.579413127e-22
-5.612128695e-21
-5.842940588e-22
-5.370529453e-21
-6.912848464e-22
-5.099973076e-21
-7.769942898e-22
-4.808353265e-21
-8.408299574e-22
-4.503262899e-21
-8.833576678e-22
-4.19166886e-21
-9.060595258e-22
-3.879696041e-21
-9.110639792e-22
-3.57251211e-21
-9.00884329e-22
-3.274296385e-21
-8.781902605e-22
-2.988272635e-21
-8.456253234e-22
-2.716785766e-21
-8.056738312e-22
-2.461404665e-21
-7.605740844e-22
-2.223036936e-21
-7.122710421e-22
-2.002044906e-21
-6.624000049e-22
-1.798355638e-21
-6.122928649e-22
-1.611560529e-21
-5.629993896e-22
-1.441002226e-21
-5.153173524e-22
-1.285848162e-21
-4.698267662e-22
-1.145151099e-21
-4.269248191e-22
-1.01789767e-21
-3.868592466e-22
-9.030463033e-22
-3.497587731e-22
-7.995559937e-22
-3.156599309e-22
-7.064074093e-22
-2.845300346e-22
-6.226176935e-22
-2.562864026e-22
-5.472501969e-22
-2.308121106e-22
-4.794201971e-22
-2.079686566e-22
-4.182975024e-22
-1.876059629e-22
-3.631066819e-22
-1.695701322e-22
-3.131255175e-22
-1.537093536e-22
-2.676821589e-22
-1.398783109e-22
-2.261513529e-22
-1.279414039e-22
-1.879500346e-22
-1.177750458e-22
-1.525325019e-22
-1.092692544e-22
-1.193853426e-22
-1.023287176e-22
-8.802226125e-23
-9.687346323e-23
-5.797892931e-23
-9.283920205e-23
-2.880778711e-23
-9.017730734e-23
-8.885433467e-23
-1.764535197e-20
-1.902837549e-20
-1.282830258e-20
-2.459251933e-20
-5.698341734e-21
-1.671078952e-20
-6.82002065e-22
-6.018550637e-21
-1.997479088e-24
2.214994214e-24
-8.048542845e-25
8.637361254e-24
2.884252127e-23
1.310872961e-22
6.708500654e-19
-4.111305597e-19
-6.306454102e-21
-4.762143187e-24
-6.243187025e-21
-2.248559761e-22
-6.120432359e-21
-4.382866229e-22
-5.943341936e-21
-6.350483985e-22
-5.71910989e-21
-8.085483357e-22
-5.456235932e-21
-9.541865211e-22
-5.163811565e-21
-1.069451798e-21
-4.850888374e-21
-1.153791652e-21
-4.525975386e-21
-1.20831445e-21
-4.196685867e-21
-1.235398045e-21
-3.869529727e-21
-1.238274236e-21
-3.549831249e-21
-1.22064194e-21
-3.24174386e-21
-1.186341688e-21
-2.948332327e-21
-1.139105687e-21
-2.671695738e-21
-1.082383917e-21
-2.413109795e-21
-1.019238061e-21
-2.173172556e-21
-9.522907127e-22
-1.951943013e-21
-8.837162348e-22
-1.74906615e-21
-8.152605226e-22
-1.563881391e-21
-7.482788972e-22
-1.395513625e-21
-6.837836627e-22
-1.242947454e-21
-6.224951153e-22
-1.105086171e-21
-5.648917494e-22
-9.807973802e-22
-5.112569844e-22
-8.689472985e-22
-4.617209314e-22
-7.684256847e-22
-4.162965776e-22
-6.781631934e-22
-3.7491034e-22
-5.971427096e-22
-3.374273057e-22
-5.244059933e-22
-3.036716737e-22
-4.590567345e-22
-2.734430113e-22
-4.002609134e-22
-2.465289503e-22
-3.472451773e-22
-2.227149255e-22
-2.992937972e-22
-2.01791502e-22
-2.557446345e-22
-1.835597734e-22
-2.159844452e-22
-1.678352449e-22
-1.79443767e-22
-1.544505478e-22
-1.455915655e-22
-1.432572723e-22
-1.13929767e-22
-1.341271459e-22
-8.398775709e-23
-1.269527367e-22
-5.531686756e-23
-1.216478091e-22
-2.748473033e-23
-1.181474348e-22
-1.164080304e-22
-1.733746478e-20
-9.216915051e-21
-1.597284554e-20
-2.146455326e-20
-9.930467408e-21
-2.133132666e-20
-1.804303732e-21
-1.144599836e-20
-5.527471572e-23
-1.34006951e-21
-7.337012216e-24
3.681908628e-23
-4.714229651e-23
1.707190329e-22
3.308171756e-18
-1.540724618e-18
-6.528230581e-21
-5.971160767e-24
-6.456573995e-21
-2.965176671e-22
-6.31716119e-21
-5.777102707e-22
-6.116818889e-21
-8.354073424e-22
-5.864735523e-21
-1.060653905e-21
-5.571498439e-21
-1.247451288e-21
-5.248156946e-21
-1.392826395e-21
-4.905423043e-21
-1.496564015e-21
-4.553075121e-21
-1.560706116e-21
-4.199580533e-21
-1.588941579e-21
-3.851916616e-21
-1.585992209e-21
-3.515549643e-21
-1.557067979e-21
-3.194525096e-21
-1.507430203e-21
-2.891625856e-21
-1.442073681e-21
-2.608562988e-21
-1.365520201e-21
-2.346173313e-21
-1.281705682e-21
-2.104606803e-21
-1.193939562e-21
-1.883494075e-21
-1.104915555e-21
-1.682089585e-21
-1.016755707e-21
-1.499389757e-21
-9.31073368e-22
-1.33422747e-21
-8.490443847e-22
-1.185345506e-21
-7.71479144e-22
-1.051452057e-21
-6.988907272e-22
-9.31261393e-22
-6.315564737e-22
-8.235225776e-22
-5.695716977e-22
-7.270387736e-22
-5.128952852e-22
-6.406792811e-22
-4.613875142e-22
-5.633860764e-22
-4.148407938e-22
-4.941762698e-22
-3.730041883e-22
-4.321416015e-22
-3.356026341e-22
-3.764458421e-22
-3.023517316e-22
-3.263207599e-22
-2.729689182e-22
-2.810611468e-22
-2.471817345e-22
-2.400192696e-22
-2.247337993e-22
-2.025990065e-22
-2.053890065e-22
-1.682498504e-22
-1.889343727e-22
-1.364609023e-22
-1.751818799e-22
-1.067549269e-22
-1.639695922e-22
-7.868250501e-23
-1.551622611e-22
-5.181627548e-23
-1.486515931e-22
-2.574521776e-23
-1.443563185e-22
-1.422222112e-22
-7.731963155e-21
-4.318801973e-21
-1.474144458e-20
-9.35358851e-21
-1.183515925e-20
-1.735149565e-20
-4.00308095e-21
-1.630781798e-20
-1.804708885e-22
-7.122331205e-21
1.73379592e-25
-3.798263199e-23
1.706463321e-22
5.970620786e-26
3.705260814e-18
-1.816357444e-18
-6.821414252e-21
-4.988281507e-24
-6.737713195e-21
-3.802238323e-22
-6.57481353e-21
-7.406207821e-22
-6.342035475e-21
-1.068202045e-21
-6.05151804e-21
-1.351193549e-21
-5.716872456e-21
-1.582124562e-21
-5.351904754e-21
-1.757827208e-21
-4.969583562e-21
-1.878923676e-21
-4.581334164e-21
-1.948999269e-21
-4.196657187e-21
-1.973667512e-21
-3.82301867e-21
-1.959684795e-21
-3.465936822e-21
-1.914208907e-21
-3.129191167e-21
-1.84423984e-21
-2.815092043e-21
-1.756241573e-21
-2.524765007e-21
-1.655920667e-21
-2.258420655e-21
-1.548127997e-21
-2.015593402e-21
-1.436849172e-21
-1.795342292e-21
-1.325253272e-21
-1.596413124e-21
-1.215775585e-21
-1.417364826e-21
-1.110216326e-21
-1.256664795e-21
-1.009842867e-21
-1.112758477e-21
-9.154875438e-22
-9.841182811e-22
-8.276364686e-22
-8.692764125e-22
-7.465071846e-22
-7.668454677e-22
-6.721146104e-22
-6.755299658e-22
-6.043257077e-22
-5.941313073e-22
-5.429038713e-22
-5.215480967e-22
-4.875443047e-22
-4.567732947e-22
-4.379017151e-22
-3.988892872e-22
-3.936116126e-22
-3.470616673e-22
-3.543063899e-22
-3.005322952e-22
-3.196272168e-22
-2.586120318e-22
-2.89232633e-22
-2.206734126e-22
-2.628045826e-22
-1.861434331e-22
-2.400524993e-22
-1.544965485e-22
-2.207159402e-22
-1.252479387e-22
-2.045661626e-22
-9.794705469e-23
-1.914069595e-22
-7.217143087e-23
-1.81074999e-22
-4.752072994e-23
-1.73439859e-22
-2.361097516e-23
-1.684039092e-22
-1.659021626e-22
-2.727331451e-21
-2.628181335e-21
-5.642924457e-21
-4.769763514e-21
-1.18480138e-20
-6.355317528e-21
-8.098503086e-21
-1.36371859e-20
-9.518133632e-22
-1.136364659e-20
2.303865712e-25
-2.523044821e-21
1.152137469e-25
1.426499459e-28
5.47522082e-19
-1.454178132e-18
-7.199189181e-21
-3.072459022e-24
-7.098044211e-21
-4.813739073e-22
-6.902335995e-21
-9.363398489e-22
-6.624989644e-21
-1.34556505e-21
-6.282433207e-21
-1.693772203e-21
-5.892578188e-21
-1.97200728e-21
-5.473019112e-21
-2.177419408e-21
-5.039687183e-21
-2.312294089e-21
-4.60603615e-21
-2.382694071e-21
-4.182710224e-21
-2.397042412e-21
-3.777577751e-21
-2.364871356e-21
-3.396000051e-21
-2.295845706e-21
-3.041221415e-21
-2.199082479e-21
-2.714795378e-21
-2.0827364e-21
-2.416992256e-21
-1.953797243e-21
-2.147157669e-21
-1.81804057e-21
-1.904009674e-21
-1.680079549e-21
-1.685873604e-21
-1.543475975e-21
-1.490860201e-21
-1.410879727e-21
-1.316995528e-21
-1.284175687e-21
-1.162311903e-21
-1.164624972e-21
-1.02490849e-21
-1.052993068e-21
-9.029890731e-22
-9.496614615e-22
-7.948831748e-22
-8.547219554e-22
-6.990553836e-22
-7.680544001e-22
-6.141066069e-22
-6.89389436e-22
-5.387700158e-22
-6.183581922e-22
-4.719036862e-22
-5.54530966e-22
-4.124813555e-22
-4.974468021e-22
-3.595822716e-22
-4.466356991e-22
-3.12380788e-22
-4.016349436e-22
-2.701361221e-22
-3.620008409e-22
-2.321825293e-22
-3.273168925e-22
-1.979200279e-22
-2.971992794e-22
-1.66805731e-22
-2.713003406e-22
-1.383457904e-22
-2.493105944e-22
-1.120879194e-22
-2.309597366e-22
-8.761444246e-23
-2.160169492e-22
-6.453580299e-23
-2.042907813e-22
-4.248445536e-23
-1.956287997e-22
-2.11090664e-23
-1.899171617e-22
-1.870802205e-22
-1.378275568e-21
-1.196684884e-21
-2.424492317e-21
-3.095587538e-21
-3.724027208e-21
-3.922502769e-21
-7.763246862e-21
-5.300260866e-21
-4.092962155e-21
-9.313210657e-21
3.5281083e-23
-4.083395497e-21
3.509682281e-23
1.016701899e-26
-1.205632824e-17
-1.087477406e-18
-7.679079149e-21
-2.534204497e-24
-7.552926448e-21
-6.075317225e-22
-7.31148492e-21
-1.17779223e-21
-6.973152044e-21
-1.683914585e-21
-6.56065401e-21
-2.106292463e-21
-6.0980017e-21
-2.434687301e-21
-5.607924051e-21
-2.667530193e-21
-5.110129223e-21
-2.810127414e-21
-4.620432099e-21
-2.872434981e-21
-4.150587447e-21
-2.866936057e-21
-3.708597649e-21
-2.806915259e-21
-3.299277569e-21
-2.705224906e-21
-2.924910265e-21
-2.573513809e-21
-2.585885084e-21
-2.421830395e-21
-2.281258639e-21
-2.258497167e-21
-2.009214451e-21
-2.09016277e-21
-1.767419346e-21
-1.921957062e-21
-1.553286779e-21
-1.757695204e-21
-1.364162466e-21
-1.600094805e-21
-1.197448642e-21
-1.450984228e-21
-1.050681908e-21
-1.311490215e-21
-9.215773451e-22
-1.182199772e-21
-8.080489683e-22
-1.063295445e-21
-7.082142748e-22
-9.546655529e-22
-6.203885772e-22
-8.559921281e-22
-5.430732166e-22
-7.668197805e-22
-4.749404867e-22
-6.866086845e-22
-4.14817174e-22
-6.147746434e-22
-3.616679404e-22
-5.507188251e-22
-3.145792991e-22
-4.938493763e-22
-2.727446041e-22
-4.43596742e-22
-2.354502557e-22
-3.994241807e-22
-2.02063179e-22
-3.608346691e-22
-1.720195425e-22
-3.273751445e-22
-1.44814634e-22
-2.986388263e-22
-1.199937791e-22
-2.742661954e-22
-9.71441753e-23
-2.539450755e-22
-7.588751282e-23
-2.374101561e-22
-5.58732525e-23
-2.244422155e-22
-3.677243928e-23
-2.148672367e-22
-1.82719366e-23
-2.085555581e-22
-2.054211643e-22
-4.431778136e-22
-1.972814476e-22
-1.266358863e-21
-1.8029517e-21
-1.873074303e-21
-2.997533803e-21
-2.723677651e-21
-3.649646576e-21
-3.972393891e-21
-4.679448299e-21
-1.486143726e-22
-3.795833193e-21
-1.315800041e-23
-1.355981097e-22
-1.433315281e-17
-1.538699118e-18
-8.285284889e-21
-5.69040017e-24
-8.123063915e-21
-7.697578138e-22
-7.817509366e-21
-1.483357636e-21
-7.39547874e-21
-2.105961876e-21
-6.889040959e-21
-2.612752478e-21
-6.330871049e-21
-2.99288493e-21
-5.750570966e-21
-3.247863423e-21
-5.172499124e-21
-3.388237767e-21
-4.614999527e-21
-3.429978379e-21
-4.090630854e-21
-3.391353739e-21
-3.606965497e-21
-3.29063474e-21
-3.167616683e-21
-3.14463286e-21
-2.773268441e-21
-2.967926096e-21
-2.422585085e-21
-2.772582587e-21
-2.112949883e-21
-2.568205871e-21
-1.841027814e-21
-2.362162875e-21
-1.603171074e-21
-2.159896238e-21
-1.395695522e-21
-1.965257444e-21
-1.215057524e-21
-1.780823596e-21
-1.057957566e-21
-1.608178932e-21
-9.213923802e-22
-1.44815394e-21
-8.026724626e-22
-1.30102186e-21
-6.994174893e-22
-1.166656056e-21
-6.095385757e-22
-1.044653402e-21
-5.31213533e-22
-9.344292331e-22
-4.628592021e-22
-8.352891276e-22
-4.031034536e-22
-7.464822281e-22
-3.507583985e-22
-6.672400961e-22
-3.047956457e-22
-5.968044005e-22
-2.643239828e-22
-5.344461086e-22
-2.285695591e-22
-4.794783027e-22
-1.968584802e-22
-4.312642847e-22
-1.686016216e-22
-3.892222611e-22
-1.432814277e-22
-3.528276003e-22
-1.204404431e-22
-3.216134212e-22
-9.967133332e-23
-2.951700841e-22
-8.060816039e-23
-2.731440161e-22
-6.291870267e-23
-2.552361904e-22
-4.629762564e-23
-2.412004983e-22
-3.046033088e-23
-2.308421866e-22
-1.513732844e-23
-2.240164855e-22
-2.206275157e-22
1.266191567e-23
-9.0627916e-24
-7.471622967e-22
-6.192415595e-22
-1.323378113e-21
-2.058165302e-21
-1.620964337e-21
-3.085360044e-21
-1.881686055e-21
-3.283618385e-21
-6.449971946e-22
-2.833519451e-21
-2.667837104e-20
-7.473174829e-21
-7.800834681e-18
-1.840500369e-18
-9.051880559e-21
-1.07874347e-23
-8.836469669e-21
-9.851738233e-22
-8.439989603e-21
-1.879848563e-21
-7.902215106e-21
-2.643753044e-21
-7.269180838e-21
-3.245808987e-21
-6.585902164e-21
-3.676191333e-21
-5.891025033e-21
-3.942773713e-21
-5.214330966e-21
-4.064970357e-21
-4.576466151e-21
-4.067887009e-21
-3.989995844e-21
-3.97787307e-21
-3.46103646e-21
-3.819648267e-21
-2.990970227e-21
-3.614758252e-21
-2.577972929e-21
-3.380987462e-21
-2.218245193e-21
-3.132379182e-21
-1.906934093e-21
-2.879590496e-21
-1.638780432e-21
-2.630394597e-21
-1.408545167e-21
-2.390213963e-21
-1.211269597e-21
-2.162619729e-21
-1.042417015e-21
-1.949767e-21
-8.979339441e-22
-1.752756777e-21
-7.742596709e-22
-1.571926782e-21
-6.68304646e-22
-1.407079086e-21
-5.774119158e-22
-1.257654454e-21
-4.993109383e-22
-1.122863346e-21
-4.320696763e-22
-1.001782589e-21
-3.740484632e-22
-8.934253888e-22
-3.238575326e-22
-7.96790986e-22
-2.8031906e-22
-7.10898999e-22
-2.424339213e-22
-6.348123948e-22
-2.093529953e-22
-5.67652137e-22
-1.803526339e-22
-5.086058342e-22
-1.548138348e-22
-4.569321421e-22
-1.322046277e-22
-4.119622349e-22
-1.120652015e-22
-3.730993217e-22
-9.399533909e-23
-3.39816927e-22
-7.764377091e-23
-3.116564642e-22
-6.269910477e-23
-2.882244825e-22
-4.888203736e-23
-2.691898667e-22
-3.593859044e-23
-2.54281183e-22
-2.363415062e-23
-2.432843133e-22
-1.174812004e-23
-2.360404725e-22
-2.324446746e-22
1.289458849e-23
-5.977383227e-26
-3.301720811e-22
-7.978024243e-23
-1.000828114e-21
-1.073634493e-21
-1.365434403e-21
-2.350838426e-21
-1.180241349e-21
-3.114332692e-21
-5.780860895e-22
-3.637884667e-21
1.446181248e-20
-7.840148658e-20
-5.881796833e-18
-3.163873018e-17
-1.003034847e-20
-7.22261597e-23
-9.730873591e-21
-1.284653822e-21
-9.203738831e-21
-2.406994188e-21
-8.504221854e-21
-3.343286696e-21
-7.699602365e-21
-4.050450724e-21
-6.852581403e-21
-4.523240033e-21
-6.013347015e-21
-4.782041268e-21
-5.217379213e-21
-4.860976694e-21
-4.4865757e-21
-4.798734352e-21
-3.831878693e-21
-4.632619118e-21
-3.256235318e-21
-4.395345802e-21
-2.757269625e-21
-4.113783124e-21
-2.329417919e-21
-3.808903255e-21
-1.965495365e-21
-3.496370616e-21
-1.657765306e-21
-3.187394103e-21
-1.398617656e-21
-2.889620333e-21
-1.180961712e-21
-2.607952393e-21
-9.984223779e-22
-2.345245803e-21
-8.454084858e-22
-2.10287174e-21
-7.171029647e-22
-1.881157099e-21
-6.094091843e-22
-1.679719159e-21
-5.188760708e-22
-1.497714429e-21
-4.426161963e-22
-1.334020025e-21
-3.782252518e-22
-1.187363287e-21
-3.237074761e-22
-1.056412489e-21
-2.774091619e-22
-9.398387823e-22
-2.379608635e-22
-8.363571436e-22
-2.042280632e-22
-7.447522615e-22
-1.75269604e-22
-6.638937419e-22
-1.503029878e-22
-5.927438881e-22
-1.286755994e-22
-5.303604255e-22
-1.098409453e-22
-4.758958873e-22
-9.33390835e-23
-4.285948962e-22
-7.878051508e-23
-3.87790218e-22
-6.583290995e-23
-3.528982083e-22
-5.421013452e-23
-3.23414084e-22
-4.366313244e-23
-2.989073172e-22
-3.397228362e-23
-2.790173565e-22
-2.494092725e-23
-2.63449809e-22
-1.638978511e-23
-2.51973174e-22
-8.1520611e-24
-2.444161843e-22
-2.406657901e-22
6.154363447e-25
1.234072271e-27
-7.247810682e-23
6.399687089e-24
-6.233235996e-22
-2.905637634e-22
-1.174369629e-21
-1.476439681e-21
-1.282929627e-21
-2.773005417e-21
1.835393725e-19
-1.882316359e-19
1.881638271e-17
-1.871144256e-17
-5.757113587e-18
-8.401112877e-16
-1.12498843e-20
-1.283655376e-22
-1.085271135e-20
-1.681831894e-21
-1.013981572e-20
-3.119900688e-21
-9.21135934e-21
-4.27175975e-21
-8.17249323e-21
-5.08933909e-21
-7.111552907e-21
-5.584208103e-21
-6.092475612e-21
-5.801151742e-21
-5.155323204e-21
-5.798167649e-21
-4.320623915e-21
-5.633477484e-21
-3.594739645e-21
-5.358552444e-21
-2.974777459e-21
-5.015362164e-21
-2.452468058e-21
-4.636151721e-21
-2.016941318e-21
-4.244494102e-21
-1.656557087e-21
-3.856823747e-21
-1.360016056e-21
-3.484008704e-21
-1.116964001e-21
-3.132750496e-21
-9.182619863e-22
-2.806736916e-21
-7.560499571e-22
-2.507544598e-21
-6.236919395e-22
-2.235320631e-21
-5.156608142e-22
-1.989283052e-21
-4.273988471e-22
-1.76807975e-21
-3.551753097e-22
-1.570040225e-21
-2.959528041e-22
-1.393348257e-21
-2.47267815e-22
-1.236157301e-21
-2.071273483e-22
-1.09666511e-21
-1.739214505e-22
-9.731597897e-22
-1.463503327e-22
-8.640461512e-22
-1.233643581e-22
-7.678587296e-22
-1.041150414e-22
-6.832659779e-22
-8.791529012e-23
-6.090688061e-22
-7.420728634e-23
-5.44195664e-22
-6.25366197e-23
-4.876956771e-22
-5.253148853e-23
-4.387308589e-22
-4.388598276e-23
-3.965680836e-22
-3.634663404e-23
-3.605712651e-22
-2.97015659e-23
-3.301940283e-22
-2.377170049e-23
-3.04973047e-22
-1.840357916e-23
-2.845221504e-22
-1.346343634e-23
-2.685272527e-22
-8.832230449e-24
-2.567421295e-22
-4.401386026e-24
-2.489850475e-22
-2.451362456e-22
1.592148558e-26
3.443549481e-29
9.306653125e-24
1.519453735e-24
-2.486800032e-22
2.823330943e-23
-7.734815311e-22
-7.369305311e-22
-1.636866345e-21
-1.835380862e-21
-1.319837574e-19
-5.780199215e-20
-1.191774168e-17
-6.924817898e-18
2.386604111e-18
-4.583045816e-16
-1.282878153e-20
-2.850174766e-23
-1.229003233e-20
-2.22058622e-21
-1.129143355e-20
-4.118510334e-21
-1.002899579e-20
-5.534214199e-21
-8.667585504e-21
-6.450771635e-21
-7.328786021e-21
-6.92303534e-21
-6.089782275e-21
-7.040188676e-21
-4.990890177e-21
-6.897098306e-21
-4.045908601e-21
-6.578502915e-21
-3.251710529e-21
-6.152799586e-21
-2.595684857e-21
-5.671442028e-21
-2.060892608e-21
-5.171003182e-21
-1.629325311e-21
-4.676125524e-21
-1.283775565e-21
-4.202442413e-21
-1.008776302e-21
-3.759081558e-21
-7.909583178e-22
-3.350646611e-21
-6.190704175e-22
-2.978707347e-21
-4.838220923e-22
-2.642879713e-21
-3.776476109e-22
-2.341586011e-21
-2.944491683e-22
-2.072576348e-21
-2.293502492e-22
-1.833277319e-21
-1.784741167e-22
-1.621018642e-21
-1.387528433e-22
-1.433175284e-21
-1.077670699e-22
-1.267252129e-21
-8.361405644e-23
-1.120930307e-21
-6.480048876e-23
-9.920884962e-22
-5.015625707e-23
-8.788083023e-22
-3.87656141e-23
-7.79369896e-22
-2.991251463e-23
-6.92242027e-22
-2.303739607e-23
-6.160691218e-22
-1.770311157e-23
-5.496572139e-22
-1.356813771e-23
-4.919598049e-22
-1.036553436e-23
-4.420643247e-22
-7.886433723e-24
-3.991795751e-22
-5.967081706e-24
-3.626243561e-22
-4.478654612e-24
-3.318173624e-22
-3.319234214e-24
-3.062683624e-22
-2.407450996e-24
-2.855706366e-22
-1.677404907e-24
-2.693946301e-22
-1.074549865e-24
-2.574827644e-22
-5.522869234e-25
-2.496453591e-22
-2.457576164e-22
3.869174437e-28
7.028150235e-31
1.786088905e-24
5.280039952e-26
1.212065591e-23
3.237213746e-23
-4.329358951e-22
-1.415326833e-22
-9.381334184e-22
-1.116293994e-21
-3.529833919e-20
-2.324104428e-20
-3.256500293e-18
-3.701903385e-18
9.749688923e-18
-2.812256269e-16
-1.510723374e-20
-3.460157475e-22
-1.418758374e-20
-3.140241335e-21
-1.270705279e-20
-5.599052156e-21
-1.094582632e-20
-7.295457357e-21
-9.140294098e-21
-8.256326126e-21
-7.446412994e-21
-8.616944206e-21
-5.947115191e-21
-8.539519676e-21
-4.672636563e-21
-8.171615504e-21
-3.620462453e-21
-7.630720893e-21
-2.770535814e-21
-7.002775307e-21
-2.095369235e-21
-6.346662813e-21
-1.566093142e-21
-5.700338505e-21
-1.155687868e-21
-5.08659494e-21
-8.404377568e-22
-4.517761462e-21
-6.003492293e-22
-3.999243695e-21
-4.190171562e-22
-3.532056834e-21
-2.832349129e-22
-3.114572144e-21
-1.825171569e-22
-2.74368428e-21
-1.086250947e-22
-2.415568995e-21
-5.51367989e-23
-2.126159522e-21
-1.707845646e-23
-1.871434336e-21
9.381708375e-24
-1.647581117e-21
2.718189947e-23
-1.451081255e-21
3.85653526e-23
-1.278744663e-21
4.523734108e-23
-1.127714506e-21
4.848829987e-23
-9.954546215e-22
4.928980163e-23
-8.797277515e-22
4.836902943e-23
-7.785696755e-22
4.626635747e-23
-6.902623333e-22
4.33797418e-23
-6.133077322e-22
3.999885813e-23
-5.464036248e-22
3.633129658e-23
-4.884214266e-22
3.252261969e-23
-4.383865397e-22
2.867169037e-23
-3.95461066e-22
2.484236201e-23
-3.589287962e-22
2.10723781e-23
-3.28182315e-22
1.738013852e-23
-3.027120471e-22
1.376984281e-23
-2.820970732e-22
1.023540877e-23
-2.659975564e-22
6.763479093e-24
-2.541486435e-22
3.335765197e-24
-2.463557227e-22
-2.424909488e-22
8.348141296e-30
6.009027285e-33
6.349859214e-26
1.811023907e-27
2.612686052e-23
2.124095556e-24
-7.81533855e-23
7.944099018e-23
-6.076108466e-22
-4.236459114e-22
-1.814629127e-20
-7.302904119e-21
-1.904861853e-18
-1.814630765e-18
1.363248691e-17
-1.595172752e-16
-1.8121247e-20
-7.306242466e-22
-1.66457597e-20
-4.615733758e-21
-1.440358995e-20
-7.841232783e-21
-1.190736895e-20
-9.791695052e-21
-9.50172163e-21
-1.066199572e-20
-7.36972544e-21
-1.074896816e-20
-5.579798092e-21
-1.032948023e-20
-4.132171531e-21
-9.619280644e-21
-2.99281129e-21
-8.770125013e-21
-2.114613147e-21
-7.881022545e-21
-1.449158955e-21
-7.012171226e-21
-9.524112871e-22
-6.197145416e-21
-5.868814731e-22
-5.452188912e-21
-3.219251109e-22
-4.78278678e-21
-1.331542609e-22
-4.188088173e-21
-1.516968514e-24
-3.663772296e-21
8.767204778e-23
-3.203843733e-21
1.456184437e-22
-2.801717509e-21
1.808044702e-22
-2.450845964e-21
1.99607435e-22
-2.145057386e-21
2.067923454e-22
-1.878717945e-21
2.058975117e-22
-1.646788617e-21
1.995327686e-22
-1.444822316e-21
1.896081839e-22
-1.268929183e-21
1.775084061e-22
-1.115726963e-21
1.642249863e-22
-9.822863939e-22
1.504564638e-22
-8.660772027e-22
1.366838582e-22
-7.649176482e-22
1.232274668e-22
-6.76928947e-22
1.102894896e-22
-6.004950083e-22
9.798592716e-23
-5.342273843e-22
8.637037106e-23
-4.769350812e-22
7.545167279e-23
-4.275987609e-22
6.520699587e-23
-3.85348837e-22
5.559138998e-23
-3.494469864e-22
4.654474959e-23
-3.192706386e-22
3.799681085e-23
-2.943000603e-22
2.987068323e-23
-2.741077053e-22
2.208529439e-23
-2.583495553e-22
1.455703877e-23
-2.467582237e-22
7.20085578e-24
-2.391376442e-22
-2.353592032e-22
1.513229195e-33
4.592169531e-37
9.659180125e-27
2.656268152e-28
5.993797526e-25
2.341940793e-27
9.055327843e-23
3.104449349e-23
-2.006417161e-22
-1.574213424e-23
-5.062888451e-21
-2.739222242e-21
-6.054465263e-19
-1.21391971e-18
6.273632678e-26
-1.275023058e-16
-2.246277342e-20
-1.489080222e-21
-1.987110432e-20
-7.207407972e-21
-1.635502091e-20
-1.135732707e-20
-1.277914963e-20
-1.336758303e-20
-9.590076496e-21
-1.385109113e-20
-6.951315552e-21
-1.338775688e-20
-4.87035716e-21
-1.241047183e-20
-3.283511048e-21
-1.120616534e-20
-2.104009976e-21
-9.949669973e-21
-1.245929861e-21
-8.739151766e-21
-6.342145002e-22
-7.623940819e-21
-2.074823149e-22
-6.623936859e-21
8.252483204e-23
-5.742260232e-21
2.727950383e-22
-4.973125957e-21
3.911915475e-22
-4.306558327e-21
4.584444839e-22
-3.731103419e-21
4.898309824e-22
-3.235312822e-21
4.965208253e-22
-2.808494203e-21
4.866212e-22
-2.441037302e-21
4.659720578e-22
-2.124503164e-21
4.387438971e-22
-1.851588503e-21
4.078832526e-22
-1.616030328e-21
3.754428049e-22
-1.412487695e-21
3.428250436e-22
-1.23642055e-21
3.109616214e-22
-1.0839758e-21
2.804450815e-22
-9.518850698e-22
2.516254081e-22
-8.37375527e-22
2.246806364e-22
-7.380934792e-22
1.996683448e-22
-6.520396852e-22
1.765630659e-22
-5.775150076e-22
1.552833247e-22
-5.130749902e-22
1.357110375e-22
-4.5749203e-22
1.177052866e-22
-4.097239549e-22
1.011119579e-22
-3.688879817e-22
8.577033531e-23
-3.342391854e-22
7.151746475e-23
-3.051527576e-22
5.819088513e-23
-2.81109458e-22
4.563016957e-23
-2.616837748e-22
3.367760584e-23
-2.465344045e-22
2.217826111e-23
-2.3539674e-22
1.097961512e-23
-2.280771276e-22
-2.244487095e-22
4.586028072e-37
1.261725806e-40
4.600713939e-28
7.279764769e-30
3.233882446e-28
2.559626196e-31
2.072502341e-23
5.321370789e-25
5.277533088e-23
5.152370923e-23
-2.648703368e-21
-2.79340339e-22
-1.422570756e-19
-1.075584066e-18
2.481467626e-18
-1.919151903e-16
-2.899019836e-20
-3.59068311e-21
-2.402285671e-20
-1.217475474e-20
-1.836833025e-20
-1.701186441e-20
-1.326555242e-20
-1.847037756e-20
-9.128905455e-21
-1.798776038e-20
-5.975465244e-21
-1.654122487e-20
-3.666925301e-21
-1.4719045e-20
-2.027506994e-21
-1.284562225e-20
-8.937388145e-22
-1.108348205e-20
-1.308187057e-22
-9.502120991e-21
3.657736499e-22
-8.120587418e-21
6.742230906e-22
-6.932445568e-21
8.517088826e-22
-5.919810209e-21
9.394198652e-22
-5.060905924e-21
9.667036454e-22
-4.333915766e-21
9.542885035e-22
-3.718766479e-21
9.166976235e-22
-3.197804549e-21
8.640198992e-22
-2.755903347e-21
8.031918364e-22
-2.380300219e-21
7.389180199e-22
-2.060324286e-21
6.743287653e-22
-1.787097986e-21
6.114485769e-22
-1.553252515e-21
5.515292069e-22
-1.352674171e-21
4.952861292e-22
-1.180286621e-21
4.430662103e-22
-1.031868161e-21
3.94966388e-22
-9.039004846e-22
3.509174481e-22
-7.934446062e-22
3.107429226e-22
-6.980395783e-22
2.742002417e-22
-6.156200564e-22
2.410092188e-22
-5.444492853e-22
2.108714937e-22
-4.830646347e-22
1.834835246e-22
-4.302333197e-22
1.585449829e-22
-3.849163809e-22
1.357638769e-22
-3.46239372e-22
1.148593582e-22
-3.134685112e-22
9.556289103e-23
-2.859913029e-22
7.761827407e-23
-2.633008413e-22
6.078086235e-23
-2.44983171e-22
4.481623818e-23
-2.30707216e-22
2.949850751e-23
-2.20216893e-22
1.460834693e-23
-2.133251189e-22
-2.09909494e-22
1.26141564e-40
3.101666647e-44
3.258309749e-31
2.496864109e-34
5.026571541e-31
5.048412474e-34
3.300555643e-26
4.207140868e-29
6.692159999e-23
1.603329464e-23
-2.760080438e-22
6.42357249e-23
-4.977643528e-19
-5.784034908e-19
-3.190806984e-17
-2.354901885e-16
-3.883769186e-20
-1.102853663e-20
-2.886845901e-20
-2.214399272e-20
-1.983401965e-20
-2.604631465e-20
-1.27878202e-20
-2.551659372e-20
-7.685312975e-21
-2.309028989e-20
-4.154909228e-21
-2.00716564e-20
-1.794316605e-21
-1.707967085e-20
-2.657152595e-22
-1.437426219e-20
6.87526366e-22
-1.203676758e-20
1.25074664e-21
-1.006539039e-20
1.554004666e-21
-8.423899696e-21
1.686967159e-21
-7.06546734e-21
1.710722142e-21
-5.943629388e-21
1.666510315e-21
-5.016763093e-21
1.581941148e-21
-4.249420271e-21
1.475326029e-21
-3.612229574e-21
1.358662611e-21
-3.081223752e-21
1.23967636e-21
-2.637003979e-21
1.123212141e-21
-2.263926996e-21
1.01218115e-21
-1.94938825e-21
9.082047946e-22
-1.683220385e-21
8.120522933e-22
-1.457202405e-21
7.239378578e-22
-1.264665599e-21
6.437221747e-22
-1.100180104e-21