/*--------------------------------*- C++ -*----------------------------------*\
  =========                 |
  \\      /  F ield         | OpenFOAM: The Open Source CFD Toolbox
   \\    /   O peration     | Website:  https://openfoam.org
    \\  /    A nd           | Version:  6
     \\/     M anipulation  |
\*---------------------------------------------------------------------------*/
FoamFile
{
    version     2.0;
    format      ascii;
    class       volVectorField;
    location    "0.07";
    object      gradT;
}
// * * * * * * * * * * * * * * * * * * * * * * * * * * * * * * * * * * * * * //

dimensions      [0 -1 0 1 0 0 0];

internalField   nonuniform List<vector> 
2500
(
(0 -943.6498117 15478.75956)
(0 -2084.470395 13254.49112)
(0 -1990.799629 10095.25024)
(0 -1460.631493 7195.759994)
(0 -1100.035083 4996.498335)
(0 -914.5261991 3186.763537)
(0 -821.4400308 1575.013909)
(0 -406.0464772 53.0408077)
(0 -12.1760399 15.5503141)
(0 -3.402101843 5.979099735)
(0 -1.320231505 2.062218588)
(0 -0.4550969669 0.6618882)
(0 -0.1447106014 0.2041096245)
(0 -0.04377767886 0.06233056347)
(0 -0.01297169492 0.01934723592)
(0 -0.003869247491 0.00619704499)
(0 -0.00118617021 0.002046147233)
(0 -0.0003763808783 0.0006862979047)
(0 -0.0001225459034 0.000229278031)
(0 -4.019359564e-05 7.498029764e-05)
(0 -1.302736673e-05 2.371235796e-05)
(0 -4.110133262e-06 7.196250748e-06)
(0 -1.246691326e-06 2.08694801e-06)
(0 -3.612124946e-07 5.786176177e-07)
(0 -1.001381173e-07 1.535953078e-07)
(0 -2.945792361e-08 3.943408943e-08)
(0 -9.55264935e-09 4.282222122e-09)
(0 -1.458778965e-09 -2.870500543e-09)
(0 1.647008509e-09 -4.799853368e-09)
(0 -9.411477192e-10 -2.21169714e-09)
(0 -3.199902245e-09 -3.905763035e-09)
(0 1.317606807e-09 -3.999877806e-09)
(0 9.411477192e-11 -1.882295438e-09)
(0 -1.364664193e-09 -6.258632332e-09)
(0 -1.882295438e-10 -6.588034034e-09)
(0 2.729328386e-09 -6.164517561e-09)
(0 3.388131789e-09 -4.235164736e-10)
(0 1.505836351e-09 1.176434649e-09)
(0 1.411721579e-09 2.541098842e-09)
(0 -3.576361333e-09 1.364664193e-09)
(0 -1.97641021e-09 -6.917435736e-09)
(0 1.599951123e-09 -3.152844859e-09)
(0 1.882295438e-09 -6.588034034e-10)
(0 3.105787473e-09 4.329279508e-09)
(0 5.176312455e-10 5.882173245e-09)
(0 -1.176434649e-09 4.799853368e-09)
(0 -1.882295438e-09 3.152844859e-09)
(0 -1.411721579e-09 -4.705738596e-11)
(0 1.599951123e-09 5.176312455e-10)
(0 -1.882295438e-09 2.917557929e-09)
(0 -1280.618632 9088.139202)
(0 -3299.038924 8818.863671)
(0 -4067.931497 7852.976263)
(0 -3638.120417 6182.178006)
(0 -2908.961374 4350.826816)
(0 -2506.958227 2824.699238)
(0 -2312.282698 1415.691167)
(0 -1153.417117 49.23951311)
(0 -34.88566807 15.48802579)
(0 -10.08599367 6.271663038)
(0 -3.99698003 2.27905957)
(0 -1.403011996 0.7769108905)
(0 -0.4548470351 0.2584669414)
(0 -0.1409847099 0.08679934575)
(0 -0.04316182346 0.03003389166)
(0 -0.0134318412 0.01071476359)
(0 -0.004324576969 0.003879009969)
(0 -0.001440488276 0.001394503093)
(0 -0.0004887716566 0.0004886789065)
(0 -0.0001653721245 0.0001648653164)
(0 -5.475668016e-05 5.317103448e-05)
(0 -1.751518257e-05 1.634143019e-05)
(0 -5.370988861e-06 4.780606897e-06)
(0 -1.572187265e-06 1.330265244e-06)
(0 -4.390924684e-07 3.522715913e-07)
(0 -1.198081047e-07 8.809142651e-08)
(0 -3.265782586e-08 2.21169714e-08)
(0 -7.670353911e-09 4.846910754e-09)
(0 -1.129377263e-09 -3.764590877e-10)
(0 1.929352824e-09 -1.129377263e-09)
(0 1.364664193e-09 1.599951123e-09)
(0 7.529181753e-10 5.788058473e-09)
(0 -2.305811912e-09 2.588156228e-09)
(0 -3.388131789e-09 2.588156228e-09)
(0 2.823443158e-10 -2.352869298e-10)
(0 3.482246561e-09 5.646886315e-10)
(0 3.905763035e-09 -1.176434649e-09)
(0 1.411721579e-09 -7.058607894e-10)
(0 -1.176434649e-09 -1.223492035e-09)
(0 -5.882173245e-09 -2.823443158e-09)
(0 -2.588156228e-09 -3.246959631e-09)
(0 4.65868121e-09 -4.470451666e-09)
(0 5.646886315e-09 -2.117582368e-09)
(0 3.435189175e-09 -1.647008509e-09)
(0 0 -2.823443158e-10)
(0 -1.599951123e-09 1.082319877e-09)
(0 -3.058730087e-09 1.035262491e-09)
(0 -1.176434649e-09 1.552893737e-09)
(0 1.364664193e-09 1.788180666e-09)
(0 -1.505836351e-09 7.999755613e-10)
(0 -1212.925343 5600.786868)
(0 -3319.633334 5818.067427)
(0 -4627.485293 5847.555423)
(0 -4962.780941 5223.244325)
(0 -4457.513851 3859.089019)
(0 -3849.661848 2538.332927)
(0 -3596.899756 1289.764718)
(0 -1806.249618 46.69999915)
(0 -55.14388997 15.93355161)
(0 -16.61106807 7.014785565)
(0 -6.814983653 2.798786072)
(0 -2.475689596 1.063732711)
(0 -0.8348221461 0.401964554)
(0 -0.2722107286 0.154958671)
(0 -0.08905627713 0.06108085948)
(0 -0.03002412923 0.0242271907)
(0 -0.01050643057 0.009463384077)
(0 -0.003766712035 0.00357622849)
(0 -0.001352183727 0.001292788224)
(0 -0.0004757014676 0.0004443998827)
(0 -0.0001615511588 0.000144918914)
(0 -5.250065496e-05 4.481646618e-05)
(0 -1.625780922e-05 1.315479813e-05)
(0 -4.789594858e-06 3.668076178e-06)
(0 -1.34221782e-06 9.745584632e-07)
(0 -3.596125435e-07 2.463924729e-07)
(0 -9.28442225e-08 6.286866764e-08)
(0 -2.395220945e-08 1.524659305e-08)
(0 -4.282222122e-09 5.646886315e-09)
(0 9.882051051e-10 3.670476105e-09)
(0 3.717533491e-09 3.670476105e-09)
(0 2.352869298e-09 1.882295438e-09)
(0 -3.199902245e-09 2.823443158e-10)
(0 -4.141049964e-09 2.494041456e-09)
(0 -2.21169714e-09 3.482246561e-09)
(0 1.74112328e-09 1.129377263e-09)
(0 2.117582368e-09 5.176312455e-10)
(0 1.552893737e-09 -1.411721579e-09)
(0 -7.529181753e-10 -1.882295438e-10)
(0 -5.599828929e-09 -2.305811912e-09)
(0 -3.576361333e-09 3.294017017e-10)
(0 2.635213614e-09 -3.105787473e-09)
(0 4.752795982e-09 -4.705738596e-09)
(0 4.941025526e-09 -5.741001087e-09)
(0 3.152844859e-09 -3.199902245e-09)
(0 2.352869298e-10 -7.058607894e-10)
(0 -1.270549421e-09 8.470329473e-10)
(0 -7.999755613e-10 2.399926684e-09)
(0 8.470329473e-10 1.788180666e-09)
(0 -4.470451666e-09 2.117582368e-09)
(0 -1063.338074 4046.565548)
(0 -3052.27037 4390.002445)
(0 -4662.754599 4742.444134)
(0 -5626.586821 4641.534327)
(0 -5593.872772 3829.641781)
(0 -5076.282527 2548.353285)
(0 -4803.915626 1310.69652)
(0 -2427.248284 48.95154716)
(0 -74.57088166 17.7135432)
(0 -23.2207592 8.594050945)
(0 -9.948032884 3.873323636)
(0 -3.799833514 1.690924788)
(0 -1.363621075 0.7373818949)
(0 -0.4818684044 0.3234311827)
(0 -0.1738933038 0.1409357888)
(0 -0.06504931655 0.05988135227)
(0 -0.02497553918 0.02442474848)
(0 -0.009611084176 0.009471450465)
(0 -0.003620600217 0.003475110214)
(0 -0.00131324134 0.001204488145)
(0 -0.0004543401437 0.0003944945367)
(0 -0.0001492793926 0.0001222469478)
(0 -4.651937886e-05 3.590464431e-05)
(0 -1.375233282e-05 1.001414113e-05)
(0 -3.860823231e-06 2.656483552e-06)
(0 -1.0314979e-06 6.728735618e-07)
(0 -2.638978205e-07 1.63383244e-07)
(0 -6.484507785e-08 3.948114682e-08)
(0 -1.251726466e-08 1.101142831e-08)
(0 -9.411477192e-11 1.74112328e-09)
(0 -4.705738596e-10 -6.117460175e-10)
(0 -2.729328386e-09 -4.046935192e-09)
(0 -1.647008509e-09 -2.588156228e-09)
(0 -1.882295438e-10 -1.176434649e-09)
(0 -1.129377263e-09 1.458778965e-09)
(0 5.646886315e-10 1.223492035e-09)
(0 1.411721579e-09 7.999755613e-10)
(0 7.529181753e-10 2.399926684e-09)
(0 -2.117582368e-09 -2.352869298e-10)
(0 -5.411599385e-09 -1.129377263e-09)
(0 -3.388131789e-09 9.411477192e-10)
(0 -2.823443158e-10 -1.97641021e-09)
(0 2.917557929e-09 -3.952820421e-09)
(0 4.941025526e-09 -4.846910754e-09)
(0 5.035140298e-09 -3.576361333e-09)
(0 2.399926684e-09 -1.694065895e-09)
(0 0 -2.823443158e-10)
(0 -1.411721579e-10 5.176312455e-10)
(0 1.082319877e-09 3.764590877e-10)
(0 -5.411599385e-09 -3.294017017e-10)
(0 -869.4884454 3379.103648)
(0 -2623.754747 3803.673941)
(0 -4375.953412 4357.578478)
(0 -5875.583293 4631.895547)
(0 -6550.694893 4181.769393)
(0 -6368.60711 2870.808347)
(0 -6096.301494 1484.397342)
(0 -3099.232594 57.52900174)
(0 -95.50138618 22.16388427)
(0 -30.45128763 11.94925059)
(0 -13.71810981 6.163588213)
(0 -5.611631337 3.095905285)
(0 -2.202315751 1.528121771)
(0 -0.8686568346 0.7362981178)
(0 -0.3526061077 0.3416658983)
(0 -0.1465351695 0.150867628)
(0 -0.06091633241 0.06291980095)
(0 -0.0247163503 0.02469974445)
(0 -0.009619146048 0.009120413331)
(0 -0.003556317145 0.003170620834)
(0 -0.001243792403 0.001039516902)
(0 -0.0004110904062 0.0003221003248)
(0 -0.0001284906629 9.453678255e-05)
(0 -3.803770856e-05 2.634027768e-05)
(0 -1.068348539e-05 6.981857297e-06)
(0 -2.852806966e-06 1.76488726e-06)
(0 -7.261895801e-07 4.255399412e-07)
(0 -1.763710826e-07 9.990283039e-08)
(0 -4.202224566e-08 2.254048787e-08)
(0 -1.063496923e-08 1.552893737e-09)
(0 -1.97641021e-09 -2.823443158e-09)
(0 3.294017017e-10 -1.176434649e-09)
(0 -3.294017017e-10 -1.411721579e-10)
(0 -9.411477192e-11 -5.646886315e-10)
(0 2.352869298e-10 2.823443158e-10)
(0 1.082319877e-09 1.176434649e-09)
(0 3.246959631e-09 -7.529181753e-10)
(0 4.235164736e-10 1.599951123e-09)
(0 -4.235164736e-09 -6.588034034e-10)
(0 -4.42339428e-09 5.646886315e-10)
(0 -4.376336894e-09 5.646886315e-10)
(0 -2.258754526e-09 -7.529181753e-10)
(0 1.882295438e-09 -1.552893737e-09)
(0 5.364541999e-09 -2.117582368e-09)
(0 6.305689718e-09 -2.776385772e-09)
(0 3.529303947e-09 -1.647008509e-09)
(0 8.940903332e-10 8.470329473e-10)
(0 -9.411477192e-11 6.588034034e-10)
(0 -4.705738596e-11 1.035262491e-09)
(0 -4.517509052e-09 -1.552893737e-09)
(0 -638.7677805 3029.296216)
(0 -2073.79554 3513.539796)
(0 -3834.532994 4203.389696)
(0 -5802.395906 4755.560139)
(0 -7354.959971 4667.080447)
(0 -7773.654579 3476.390673)
(0 -7617.194972 1783.1541)
(0 -3889.481741 74.84032499)
(0 -120.1506328 32.09887721)
(0 -39.22105526 19.34518702)
(0 -18.80137819 11.30327494)
(0 -8.435299956 6.350921251)
(0 -3.723228243 3.413022172)
(0 -1.668324277 1.740187995)
(0 -0.7593237936 0.8355764124)
(0 -0.3437954139 0.3761298288)
(0 -0.1511434228 0.1584653665)
(0 -0.06341047175 0.06250977649)
(0 -0.02514972379 0.02312466184)
(0 -0.009394137863 0.00804048618)
(0 -0.003302860653 0.002634186492)
(0 -0.001094259559 0.0008152122723)
(0 -0.000342279426 0.0002389097838)
(0 -0.0001013073051 6.646239315e-05)
(0 -2.843616659e-05 1.759132142e-05)
(0 -7.587815256e-06 4.437276209e-06)
(0 -1.928835193e-06 1.068720293e-06)
(0 -4.678445312e-07 2.464865877e-07)
(0 -1.109142587e-07 5.43042234e-08)
(0 -2.54580458e-08 1.134083002e-08)
(0 -3.294017017e-09 3.623418719e-09)
(0 4.705738596e-11 2.399926684e-09)
(0 -9.882051051e-10 4.705738596e-10)
(0 2.352869298e-10 6.588034034e-10)
(0 5.646886315e-10 7.999755613e-10)
(0 -5.646886315e-10 1.317606807e-09)
(0 1.835238052e-09 -3.764590877e-10)
(0 8.940903332e-10 -7.058607894e-10)
(0 -3.058730087e-09 -1.411721579e-10)
(0 -4.18810735e-09 -8.470329473e-10)
(0 -4.705738596e-09 -4.705738596e-11)
(0 -2.44698407e-09 7.529181753e-10)
(0 1.552893737e-09 -6.588034034e-10)
(0 3.623418719e-09 -2.305811912e-09)
(0 5.599828929e-09 -3.011672701e-09)
(0 6.117460175e-09 -9.882051051e-10)
(0 2.258754526e-09 9.411477192e-10)
(0 0 9.882051051e-10)
(0 -1.082319877e-09 1.505836351e-09)
(0 -4.941025526e-09 1.411721579e-10)
(0 -385.2448653 2767.95382)
(0 -1449.661267 3278.537704)
(0 -3133.933069 4051.588705)
(0 -5411.892543 4778.204454)
(0 -7829.864359 5027.634375)
(0 -9252.533457 4139.294123)
(0 -9497.851841 2148.666412)
(0 -4850.287818 105.1052455)
(0 -150.9965242 53.76024209)
(0 -51.2468899 36.03620215)
(0 -26.71237558 23.12084374)
(0 -13.5018841 13.9543794)
(0 -6.813049007 7.867176443)
(0 -3.446102594 4.128653233)
(0 -1.716664274 2.014202661)
(0 -0.8236462155 0.9138930253)
(0 -0.3745363847 0.3862973486)
(0 -0.160057055 0.1524898038)
(0 -0.06408843635 0.0563722037)
(0 -0.02404679245 0.01957279792)
(0 -0.008469066358 0.006400987701)
(0 -0.002806367209 0.001977155693)
(0 -0.000877240495 0.0005783147094)
(0 -0.0002593560768 0.0001605757063)
(0 -7.270864939e-05 4.242020997e-05)
(0 -1.937545515e-05 1.06832501e-05)
(0 -4.917026259e-06 2.569521503e-06)
(0 -1.190693037e-06 5.913701693e-07)
(0 -2.772150607e-07 1.299725e-07)
(0 -6.126871652e-08 2.851677589e-08)
(0 -1.082319877e-08 5.788058473e-09)
(0 -2.917557929e-09 -4.705738596e-10)
(0 -2.164639754e-09 -5.176312455e-10)
(0 2.823443158e-10 -7.058607894e-10)
(0 9.411477192e-10 -1.647008509e-09)
(0 -9.411477192e-11 4.705738596e-10)
(0 1.223492035e-09 0)
(0 7.058607894e-10 -5.176312455e-10)
(0 -4.376336894e-09 1.882295438e-09)
(0 -4.376336894e-09 -1.364664193e-09)
(0 -2.729328386e-09 4.705738596e-11)
(0 -2.870500543e-09 -9.411477192e-11)
(0 -1.176434649e-09 -5.646886315e-10)
(0 3.058730087e-09 -2.21169714e-09)
(0 7.529181753e-09 -1.552893737e-09)
(0 7.482124367e-09 -1.035262491e-09)
(0 2.870500543e-09 3.764590877e-10)
(0 4.235164736e-10 3.294017017e-10)
(0 -7.999755613e-10 4.705738596e-10)
(0 -6.211574947e-09 6.588034034e-10)
(0 -128.1838968 2565.941056)
(0 -790.1606549 3051.780209)
(0 -2334.866243 3875.018146)
(0 -4826.350236 4739.48552)
(0 -7993.870302 5218.298896)
(0 -10652.62254 4670.570308)
(0 -11651.38385 2577.18708)
(0 -5984.387912 161.9854525)
(0 -189.2196761 101.2410079)
(0 -69.8604536 73.8227071)
(0 -40.88320095 50.17935192)
(0 -23.68896725 31.44404437)
(0 -13.54895441 18.12642269)
(0 -7.52129806 9.625499434)
(0 -3.974084001 4.720692443)
(0 -1.971700726 2.145045937)
(0 -0.9125466443 0.9061400236)
(0 -0.3933356167 0.3570908411)
(0 -0.1580667297 0.1317190138)
(0 -0.05936535382 0.04562480939)
(0 -0.02089850288 0.01488514922)
(0 -0.006916932457 0.004587083868)
(0 -0.00215885946 0.001338749737)
(0 -0.0006372018516 0.0003709434915)
(0 -0.0001783285287 9.780190634e-05)
(0 -4.743850373e-05 2.458950763e-05)
(0 -1.202066807e-05 5.907348946e-06)
(0 -2.907393534e-06 1.356993839e-06)
(0 -6.737676522e-07 2.990967452e-07)
(0 -1.497836595e-07 6.329218411e-08)
(0 -3.223430938e-08 1.082319877e-08)
(0 -6.258632332e-09 5.646886315e-10)
(0 -1.129377263e-09 2.352869298e-10)
(0 -9.411477192e-10 -1.552893737e-09)
(0 1.647008509e-09 -2.729328386e-09)
(0 1.082319877e-09 -3.764590877e-10)
(0 8.940903332e-10 -1.082319877e-09)
(0 2.823443158e-09 -1.411721579e-10)
(0 -3.999877806e-09 1.505836351e-09)
(0 -5.976288017e-09 5.646886315e-10)
(0 -3.435189175e-09 -7.999755613e-10)
(0 -3.058730087e-09 -5.176312455e-10)
(0 -6.117460175e-10 -7.999755613e-10)
(0 2.729328386e-09 5.646886315e-10)
(0 6.729206192e-09 -2.44698407e-09)
(0 7.999755613e-09 -7.529181753e-10)
(0 3.717533491e-09 1.411721579e-10)
(0 4.705738596e-11 4.705738596e-11)
(0 -7.999755613e-10 -6.588034034e-10)
(0 -6.023345403e-09 3.764590877e-10)
(0 100.594288 2486.530897)
(0 -140.5841759 2878.653584)
(0 -1446.227758 3715.049937)
(0 -4068.611794 4740.012952)
(0 -7898.779572 5486.149534)
(0 -11893.64527 5279.993805)
(0 -14006.4367 3279.748986)
(0 -7326.23389 282.6354575)
(0 -239.1592695 205.9310502)
(0 -102.3085459 158.2440082)
(0 -69.09103831 110.7362626)
(0 -45.55481333 70.46621558)
(0 -28.63159394 40.90880816)
(0 -16.85183284 21.7685187)
(0 -9.197117771 10.66814444)
(0 -4.638198635 4.836796956)
(0 -2.162491481 2.037326768)
(0 -0.9344780648 0.8003668033)
(0 -0.3755544682 0.2943127386)
(0 -0.140880657 0.1016411065)
(0 -0.04950679188 0.03306814113)
(0 -0.01635276669 0.01016410926)
(0 -0.005093380871 0.002959337924)
(0 -0.001500303955 0.0008181781582)
(0 -0.0004190626332 0.0002152841997)
(0 -0.0001112699184 5.402714951e-05)
(0 -2.814958711e-05 1.295711005e-05)
(0 -6.798992295e-06 2.973509161e-06)
(0 -1.570963773e-06 6.541447222e-07)
(0 -3.494952055e-07 1.383487147e-07)
(0 -7.350363687e-08 2.696388215e-08)
(0 -1.350546977e-08 5.223369841e-09)
(0 -4.376336894e-09 1.647008509e-09)
(0 -2.635213614e-09 9.411477192e-10)
(0 2.164639754e-09 1.364664193e-09)
(0 1.552893737e-09 -1.599951123e-09)
(0 1.552893737e-09 -8.470329473e-10)
(0 3.199902245e-09 -9.411477192e-11)
(0 -3.764590877e-09 -2.305811912e-09)
(0 -6.540976648e-09 -1.411721579e-09)
(0 -3.952820421e-09 -3.294017017e-10)
(0 -2.823443158e-09 1.411721579e-09)
(0 -4.705738596e-11 1.694065895e-09)
(0 1.317606807e-09 2.258754526e-09)
(0 6.305689718e-09 4.705738596e-11)
(0 1.002322321e-08 -1.97641021e-09)
(0 3.670476105e-09 -2.541098842e-09)
(0 -3.294017017e-10 0)
(0 -5.176312455e-10 3.764590877e-10)
(0 -5.882173245e-09 -2.823443158e-10)
(0 263.9387903 2575.165864)
(0 438.3583849 2827.042832)
(0 -473.5068761 3617.689534)
(0 -3055.250639 4811.919676)
(0 -7453.889449 5926.86743)
(0 -12859.02309 6180.320534)
(0 -16648.7422 4428.999138)
(0 -9058.205847 535.6862175)
(0 -313.6111254 433.5061855)
(0 -165.0552412 341.9434777)
(0 -128.6609936 241.7151893)
(0 -93.51642173 154.156542)
(0 -62.24665129 89.35038107)
(0 -37.76196178 47.38188228)
(0 -20.90580574 23.12311528)
(0 -10.6025184 10.43785268)
(0 -4.948976797 4.377870837)
(0 -2.136349646 1.712993609)
(0 -0.8567924265 0.627595033)
(0 -0.3206099514 0.2160161344)
(0 -0.1123755 0.07006619115)
(0 -0.03702573562 0.02147701693)
(0 -0.01150479056 0.006237579564)
(0 -0.003381255576 0.001720616095)
(0 -0.0009424796785 0.0004518053506)
(0 -0.0002497655463 0.0001131680251)
(0 -6.307435547e-05 2.709197236e-05)
(0 -1.521035886e-05 6.210869086e-06)
(0 -3.508881041e-06 1.364099504e-06)
(0 -7.769174422e-07 2.872382839e-07)
(0 -1.654067116e-07 5.891584722e-08)
(0 -3.152844859e-08 9.834993665e-09)
(0 -5.411599385e-09 1.599951123e-09)
(0 -1.270549421e-09 2.44698407e-09)
(0 -8.470329473e-10 2.117582368e-09)
(0 -1.035262491e-09 -1.599951123e-09)
(0 2.352869298e-09 4.235164736e-10)
(0 1.317606807e-09 -1.317606807e-09)
(0 -5.270427227e-09 -2.117582368e-09)
(0 -4.093992578e-09 -2.164639754e-09)
(0 -5.646886315e-10 1.835238052e-09)
(0 -1.035262491e-09 2.682271e-09)
(0 1.882295438e-10 2.541098842e-09)
(0 1.035262491e-09 2.258754526e-09)
(0 2.541098842e-09 3.435189175e-09)
(0 5.411599385e-09 -1.458778965e-09)
(0 5.741001087e-09 -9.882051051e-10)
(0 2.964615315e-09 1.411721579e-10)
(0 -1.129377263e-09 7.529181753e-10)
(0 -6.070402789e-09 -3.764590877e-10)
(0 352.4712554 2790.697845)
(0 901.9394941 2936.611521)
(0 538.6490862 3605.982533)
(0 -1759.433898 4931.288395)
(0 -6530.378714 6465.829094)
(0 -13391.51356 7334.049266)
(0 -19651.07101 6008.259032)
(0 -11321.72684 1052.707705)
(0 -432.9020094 916.8821186)
(0 -294.099542 728.3154763)
(0 -256.877974 513.6311325)
(0 -197.9196216 325.6751137)
(0 -135.4062537 187.4874953)
(0 -83.07909863 98.75499083)
(0 -46.14114737 47.89119861)
(0 -23.38344308 21.49491096)
(0 -10.88735055 8.969421242)
(0 -4.684753869 3.493671098)
(0 -1.872531943 1.274836905)
(0 -0.6984094989 0.4372277694)
(0 -0.2440459093 0.1413670643)
(0 -0.08018137833 0.0432095852)
(0 -0.0248497817 0.01251745736)
(0 -0.007286078215 0.003444985958)
(0 -0.002026510562 0.0009027173167)
(0 -0.0005359833908 0.0002256827055)
(0 -0.0001351066961 5.393294062e-05)
(0 -3.252691221e-05 1.234334057e-05)
(0 -7.494547517e-06 2.709046652e-06)
(0 -1.654678862e-06 5.703825752e-07)
(0 -3.509069271e-07 1.158082268e-07)
(0 -7.082136587e-08 2.1458168e-08)
(0 -1.181140388e-08 1.882295438e-09)
(0 -2.070524982e-09 -1.835238052e-09)
(0 -1.882295438e-09 -2.399926684e-09)
(0 -1.882295438e-10 -1.176434649e-09)
(0 1.74112328e-09 1.035262491e-09)
(0 7.058607894e-10 -1.176434649e-09)
(0 -4.517509052e-09 0)
(0 -2.635213614e-09 -1.882295438e-10)
(0 8.940903332e-10 9.411477192e-10)
(0 -2.164639754e-09 1.364664193e-09)
(0 -3.764590877e-10 -4.705738596e-11)
(0 2.305811912e-09 5.176312455e-10)
(0 2.541098842e-09 2.070524982e-09)
(0 5.505714157e-09 1.458778965e-09)
(0 5.223369841e-09 2.541098842e-09)
(0 1.458778965e-09 9.411477192e-11)
(0 -9.411477192e-10 1.411721579e-10)
(0 -6.352747104e-09 1.411721579e-10)
(0 409.8524659 3063.863399)
(0 1253.643073 3177.319143)
(0 1521.169998 3672.959919)
(0 -195.4040779 5056.973842)
(0 -5051.128578 7047.468273)
(0 -13316.59315 8682.40665)
(0 -22930.08376 8041.530143)
(0 -14149.58276 2098.149615)
(0 -638.0033544 1914.737072)
(0 -568.3062272 1509.16658)
(0 -531.3013562 1052.517324)
(0 -419.660059 659.9544687)
(0 -289.1667741 376.1017855)
(0 -177.3582584 196.3571762)
(0 -98.16588561 94.49824988)
(0 -49.52429576 42.13548376)
(0 -22.95021666 17.48307074)
(0 -9.830933984 6.776581906)
(0 -3.913235755 2.46228818)
(0 -1.454079792 0.8413600419)
(0 -0.5063936842 0.2711492103)
(0 -0.1658753426 0.08264005272)
(0 -0.05126938976 0.02387895748)
(0 -0.01499599553 0.006556806518)
(0 -0.004161782931 0.001714592091)
(0 -0.001098549969 0.0004278551176)
(0 -0.0002764136734 0.0001020739641)
(0 -6.643429989e-05 2.332347572e-05)
(0 -1.528179198e-05 5.114008476e-06)
(0 -3.370202925e-06 1.07794354e-06)
(0 -7.142840615e-07 2.195227055e-07)
(0 -1.4545438e-07 4.512803313e-08)
(0 -2.870500543e-08 6.63509142e-09)
(0 -5.646886315e-09 -2.44698407e-09)
(0 -1.882295438e-10 -3.576361333e-09)
(0 2.494041456e-09 -2.399926684e-09)
(0 2.305811912e-09 -6.588034034e-10)
(0 2.352869298e-10 -7.529181753e-10)
(0 -4.282222122e-09 -4.705738596e-10)
(0 -3.105787473e-09 9.411477192e-11)
(0 9.882051051e-10 -1.929352824e-09)
(0 -2.023467596e-09 -1.458778965e-09)
(0 -6.588034034e-10 -7.529181753e-10)
(0 3.105787473e-09 -2.258754526e-09)
(0 3.529303947e-09 8.470329473e-10)
(0 5.976288017e-09 3.152844859e-09)
(0 4.329279508e-09 8.940903332e-10)
(0 5.646886315e-10 5.176312455e-10)
(0 -1.082319877e-09 4.705738596e-11)
(0 -6.39980449e-09 2.823443158e-10)
(0 465.9269988 3347.602619)
(0 1511.036014 3442.361161)
(0 2418.303786 3805.038232)
(0 1615.074457 5125.683759)
(0 -2904.945906 7619.196881)
(0 -12397.45169 10281.53235)
(0 -26235.32805 10771.97353)
(0 -17448.51991 4173.911803)
(0 -1021.885044 3899.097175)
(0 -1156.319291 3014.839301)
(0 -1106.090085 2066.160074)
(0 -874.3351597 1276.416023)
(0 -599.0035461 718.4755736)
(0 -364.6826342 371.2823129)
(0 -200.3628399 177.1680638)
(0 -100.3986222 78.43693456)
(0 -46.2462524 32.35108268)
(0 -19.70553643 12.47593129)
(0 -7.807753806 4.513465941)
(0 -2.889548469 1.536458751)
(0 -1.002765898 0.4935453228)
(0 -0.3274516311 0.1499904817)
(0 -0.1009330279 0.0432302657)
(0 -0.0294504436 0.01184364487)
(0 -0.008155462009 0.003090838048)
(0 -0.002148501471 0.0007698759161)
(0 -0.0005396383379 0.0001833684217)
(0 -0.0001294869149 4.183434552e-05)
(0 -2.974003264e-05 9.1585908e-06)
(0 -6.549164633e-06 1.92582352e-06)
(0 -1.383816549e-06 3.920350824e-07)
(0 -2.837089799e-07 7.91034658e-08)
(0 -5.924524892e-08 1.496424873e-08)
(0 -1.228197774e-08 1.129377263e-09)
(0 -1.835238052e-09 -1.552893737e-09)
(0 2.729328386e-09 -1.364664193e-09)
(0 3.388131789e-09 -3.152844859e-09)
(0 9.411477192e-10 -1.647008509e-09)
(0 -3.717533491e-09 -1.882295438e-09)
(0 -4.141049964e-09 -4.705738596e-11)
(0 -6.588034034e-10 -1.552893737e-09)
(0 -9.411477192e-10 -1.364664193e-09)
(0 -1.270549421e-09 -7.529181753e-10)
(0 3.905763035e-09 -2.258754526e-09)
(0 7.905640841e-09 -4.705738596e-11)
(0 5.693943701e-09 1.411721579e-09)
(0 2.588156228e-09 -4.705738596e-11)
(0 5.646886315e-10 4.705738596e-10)
(0 -1.176434649e-09 -4.705738596e-11)
(0 -6.682148806e-09 -4.705738596e-11)
(0 504.611008 3644.538283)
(0 1711.078687 3720.573917)
(0 3204.492596 4004.480178)
(0 3618.754571 5088.412471)
(0 104.7200143 8048.094235)
(0 -10163.81651 12135.8426)
(0 -29037.7043 14582.2165)
(0 -21022.45911 8149.446455)
(0 -1797.075856 7662.773499)
(0 -2401.243328 5763.717918)
(0 -2269.724635 3864.350996)
(0 -1767.34456 2346.160546)
(0 -1194.300484 1302.467207)
(0 -718.6657682 665.6254021)
(0 -391.011264 314.7681201)
(0 -194.3412769 138.3274302)
(0 -88.91121993 56.70305729)
(0 -37.66855072 21.75459796)
(0 -14.85270829 7.835924726)
(0 -5.474000409 2.657519899)
(0 -1.892861954 0.8509013772)
(0 -0.6161903998 0.257865126)
(0 -0.1894162265 0.07413812788)
(0 -0.05513542323 0.02026686496)
(0 -0.01523555193 0.005278705516)
(0 -0.004006019595 0.001312524892)
(0 -0.001004455197 0.0003121179474)
(0 -0.0002406440367 7.110394547e-05)
(0 -5.519040809e-05 1.554164286e-05)
(0 -1.213675864e-05 3.26517084e-06)
(0 -2.561004116e-06 6.60215125e-07)
(0 -5.225722711e-07 1.287019506e-07)
(0 -1.06679094e-07 2.564627535e-08)
(0 -2.216402879e-08 5.693943701e-09)
(0 -2.635213614e-09 2.023467596e-09)
(0 8.470329473e-10 1.882295438e-10)
(0 2.023467596e-09 -1.97641021e-09)
(0 1.505836351e-09 -2.21169714e-09)
(0 -2.682271e-09 -1.599951123e-09)
(0 -2.729328386e-09 0)
(0 -3.294017017e-10 -1.882295438e-10)
(0 -1.129377263e-09 3.294017017e-10)
(0 -1.599951123e-09 -4.705738596e-10)
(0 3.811648263e-09 -1.882295438e-10)
(0 7.10566528e-09 -2.352869298e-09)
(0 5.976288017e-09 -1.082319877e-09)
(0 3.388131789e-09 -6.588034034e-10)
(0 5.646886315e-10 0)
(0 -1.599951123e-09 0)
(0 -6.258632332e-09 0)
(0 541.9626334 3983.986594)
(0 1870.977909 4068.357091)
(0 3786.14234 4332.630837)
(0 5658.688515 5134.493527)
(0 4142.484226 8050.410546)
(0 -5863.329435 14017.09968)
(0 -30221.7242 19702.16589)
(0 -24367.96291 15338.47848)
(0 -3407.613581 14395.26264)
(0 -4954.741793 10474.50844)
(0 -4523.647458 6850.92337)
(0 -3436.218949 4081.503455)
(0 -2279.53869 2232.827321)
(0 -1352.381721 1127.959607)
(0 -727.6608118 528.4897982)
(0 -358.463685 230.5141619)
(0 -162.8190847 93.91216462)
(0 -68.57266899 35.84625396)
(0 -26.90483187 12.85623645)
(0 -9.874571817 4.344212197)
(0 -3.402420671 1.386592269)
(0 -1.10421488 0.4190620955)
(0 -0.338531289 0.1201963937)
(0 -0.09830986592 0.03278854572)
(0 -0.02710980212 0.008524125241)
(0 -0.007115089039 0.002115930654)
(0 -0.001781059284 0.0005024060165)
(0 -0.0004260631252 0.0001142982494)
(0 -9.757890138e-05 2.49537318e-05)
(0 -2.143059237e-05 5.236781196e-06)
(0 -4.52023838e-06 1.057379462e-06)
(0 -9.182778296e-07 2.055937193e-07)
(0 -1.822532558e-07 4.013995022e-08)
(0 -3.58577281e-08 1.025851014e-08)
(0 -7.435066981e-09 5.035140298e-09)
(0 -1.317606807e-09 9.882051051e-10)
(0 1.035262491e-09 0)
(0 1.317606807e-09 -5.646886315e-10)
(0 -1.505836351e-09 -5.176312455e-10)
(0 -2.729328386e-09 -2.823443158e-10)
(0 -3.764590877e-10 -4.235164736e-10)
(0 -1.176434649e-09 0)
(0 -1.788180666e-09 -4.705738596e-10)
(0 2.117582368e-09 -1.882295438e-10)
(0 7.011550508e-09 -3.011672701e-09)
(0 7.293894824e-09 -1.082319877e-09)
(0 3.670476105e-09 -8.470329473e-10)
(0 1.223492035e-09 0)
(0 -1.176434649e-09 0)
(0 -6.682148806e-09 4.235164736e-10)
(0 588.981505 4365.291495)
(0 2059.72293 4480.650417)
(0 4270.629031 4826.166346)
(0 7336.53428 5580.273523)
(0 8987.32617 7989.477153)
(0 1487.93884 15383.45061)
(0 -27716.32551 25957.83269)
(0 -26329.36236 27340.91205)
(0 -6661.045897 25611.09833)
(0 -9945.5826 17976.59935)
(0 -8662.729617 11454.37333)
(0 -6385.440608 6691.910232)
(0 -4147.844332 3606.541481)
(0 -2423.003291 1800.828406)
(0 -1288.456709 836.0136229)
(0 -628.9189105 361.9591052)
(0 -283.5791278 146.5766341)
(0 -118.7244789 55.67044654)
(0 -46.35475005 19.88326852)
(0 -16.94364459 6.695097965)
(0 -5.818012055 2.13053366)
(0 -1.882586275 0.6422289139)
(0 -0.5756897764 0.1837889053)
(0 -0.1668076918 0.0500362519)
(0 -0.0459081669 0.01298509263)
(0 -0.01202773877 0.003218184275)
(0 -0.003006087648 0.0007630397485)
(0 -0.0007180963685 0.0001733704213)
(0 -0.0001642519234 3.780882144e-05)
(0 -3.603301686e-05 7.924322623e-06)
(0 -7.592238651e-06 1.599057032e-06)
(0 -1.539717669e-06 3.104375752e-07)
(0 -3.021084179e-07 5.83041012e-08)
(0 -5.736295348e-08 1.3411355e-08)
(0 -1.176434649e-08 5.129255069e-09)
(0 -4.141049964e-09 9.411477192e-10)
(0 4.705738596e-10 0)
(0 9.882051051e-10 5.646886315e-10)
(0 -2.399926684e-09 -1.411721579e-10)
(0 -2.682271e-09 1.223492035e-09)
(0 0 -6.588034034e-10)
(0 -1.270549421e-09 -9.411477192e-10)
(0 -1.74112328e-09 -7.999755613e-10)
(0 1.223492035e-09 1.411721579e-10)
(0 6.258632332e-09 -2.917557929e-09)
(0 8.140927771e-09 -1.788180666e-09)
(0 4.470451666e-09 -2.305811912e-09)
(0 1.411721579e-09 -3.294017017e-10)
(0 -1.176434649e-09 -9.411477192e-11)
(0 -6.682148806e-09 1.411721579e-10)
(0 657.321556 4762.579026)
(0 2331.85276 4934.119351)
(0 4885.765445 5433.768805)
(0 8821.999322 6469.182558)
(0 13945.66131 8697.856413)
(0 12105.0261 15669.51513)
(0 -18264.26276 32557.81101)
(0 -24714.69726 45448.86991)
(0 -12771.92628 42771.02746)
(0 -19111.4668 28946.18753)
(0 -15808.33658 17966.66869)
(0 -11284.05079 10294.51201)
(0 -7170.620516 5466.974647)
(0 -4122.909579 2698.883005)
(0 -2166.530112 1241.767041)
(0 -1047.900674 533.8090011)
(0 -469.1077433 214.9217913)
(0 -195.2660346 81.24171761)
(0 -75.88018044 28.90198911)
(0 -27.62730668 9.699593474)
(0 -9.455289723 3.077910342)
(0 -3.050959635 0.9255496665)
(0 -0.9307239509 0.2643077448)
(0 -0.2691136786 0.07182390192)
(0 -0.07392786974 0.01860869203)
(0 -0.01933714192 0.004605167033)
(0 -0.004825873232 0.001090459534)
(0 -0.001151294005 0.0002474691929)
(0 -0.0002630249059 5.390654143e-05)
(0 -5.764035677e-05 1.128873749e-05)
(0 -1.213417049e-05 2.274377578e-06)
(0 -2.459077818e-06 4.413982803e-07)
(0 -4.792324186e-07 8.169162202e-08)
(0 -8.903257423e-08 1.736417542e-08)
(0 -1.990527426e-08 4.093992578e-09)
(0 -6.493919262e-09 4.705738596e-10)
(0 7.058607894e-10 2.117582368e-09)
(0 1.129377263e-09 2.258754526e-09)
(0 -8.470329473e-10 4.705738596e-11)
(0 -3.199902245e-09 1.74112328e-09)
(0 -2.494041456e-09 -1.223492035e-09)
(0 -1.458778965e-09 -1.082319877e-09)
(0 -5.646886315e-10 9.411477192e-11)
(0 -4.705738596e-11 4.705738596e-11)
(0 5.129255069e-09 -1.552893737e-09)
(0 7.811526069e-09 -2.070524982e-09)
(0 5.176312455e-09 -5.176312455e-10)
(0 3.435189175e-09 4.705738596e-11)
(0 -7.058607894e-10 0)
(0 -6.729206192e-09 -4.705738596e-11)
(0 760.5218299 5120.847904)
(0 2730.912709 5367.06691)
(0 5805.692238 6062.093277)
(0 10600.62189 7570.156685)
(0 18187.65874 10414.06376)
(0 25347.89344 17013.62196)
(0 2063.029267 37885.52889)
(0 -16116.14591 69644.51513)
(0 -23163.72827 66487.02458)
(0 -34749.94137 43442.06853)
(0 -27314.40514 26291.04635)
(0 -18885.13465 14785.4421)
(0 -11743.47334 7742.002478)
(0 -6648.210897 3780.801465)
(0 -3453.530713 1724.887487)
(0 -1655.76416 736.5205145)
(0 -736.1464114 294.933759)
(0 -304.7442811 110.993646)
(0 -117.8968742 39.34160847)
(0 -42.76772336 13.16255911)
(0 -14.59205586 4.16588817)
(0 -4.696188872 1.249906168)
(0 -1.429415541 0.3562405599)
(0 -0.4125067446 0.09664152273)
(0 -0.1131269017 0.02500106372)
(0 -0.02954597132 0.006178848558)
(0 -0.007363785488 0.001461338369)
(0 -0.001754649408 0.0003312761856)
(0 -0.0004004323318 7.20910212e-05)
(0 -8.766522777e-05 1.508316275e-05)
(0 -1.84395308e-05 3.036754288e-06)
(0 -3.732450682e-06 5.895349313e-07)