/*--------------------------------*- C++ -*----------------------------------*\
  =========                 |
  \\      /  F ield         | OpenFOAM: The Open Source CFD Toolbox
   \\    /   O peration     | Website:  https://openfoam.org
    \\  /    A nd           | Version:  6
     \\/     M anipulation  |
\*---------------------------------------------------------------------------*/
FoamFile
{
    version     2.0;
    format      ascii;
    class       volVectorField;
    location    "0.07";
    object      Marangoni;
}
// * * * * * * * * * * * * * * * * * * * * * * * * * * * * * * * * * * * * * //

dimensions      [1 -2 -2 0 0 0 0];

internalField   nonuniform List<vector> 
2500
(
(-0 4.016993663e-12 -6.598920672e-11)
(-0 1.82733357e-11 -1.163127235e-10)
(-0 1.652964985e-11 -8.386276861e-11)
(-0 5.756988884e-12 -2.837738328e-11)
(-0 2.78059395e-13 -1.263504468e-12)
(-0 9.072919343e-17 -3.162057974e-16)
(-0 1.496887115e-07 -2.876115701e-07)
(-0 3.094099287e-06 -4.419620415)
(-0 9.470909399e-08 -1.294066236)
(-0 6.261904016e-10 -1.101647435e-09)
(-0 1.624404247e-15 -2.535136603e-15)
(-0 6.347494476e-16 -9.225418325e-16)
(-0 2.892106214e-16 -4.077110864e-16)
(-0 8.885797748e-17 -1.26470374e-16)
(-0 3.078169567e-17 -4.590082054e-17)
(-0 7.550050613e-18 -1.209085537e-17)
(-0 5.020989445e-18 -8.660525595e-18)
(-0 8.194890819e-19 -1.494118088e-18)
(-0 3.846154241e-19 -7.194922454e-19)
(-0 9.481731715e-20 -1.768447334e-19)
(-0 4.094385445e-20 -7.450832527e-20)
(-0 9.874915558e-21 -1.728425942e-20)
(-0 3.772803139e-21 -6.314050931e-21)
(-0 1.481791982e-21 -2.372655507e-21)
(-0 4.002822684e-22 -6.138798614e-22)
(-0 2.907350835e-23 -3.884258109e-23)
(-0 9.206630078e-24 -4.122371677e-24)
(-0 2.091567708e-24 4.11566549e-24)
(-0 -2.385390745e-24 6.883556151e-24)
(-0 2.24022731e-24 5.541614925e-24)
(-0 6.576268715e-24 7.930206392e-24)
(-0 -3.042965853e-24 9.692409755e-24)
(-0 -2.468507858e-25 4.937015716e-24)
(-0 5.061774606e-24 2.244053409e-23)
(-0 5.706371932e-25 2.011496106e-23)
(-0 -0 0)
(-0 -0 0)
(-0 -0 -0)
(-0 -0 -0)
(-0 0 -0)
(-0 0 0)
(-0 -0 0)
(-0 -0 0)
(-0 -0 -0)
(-0 -0 -0)
(-0 0 -0)
(-0 0 -0)
(-0 0 0)
(-0 -0 -0)
(-0 0 -0)
(-0 5.381930925e-12 -3.825176277e-11)
(-0 2.798052183e-11 -7.485704041e-11)
(-0 5.413235736e-11 -1.045522848e-10)
(-0 3.81294003e-11 -6.48128795e-11)
(-0 9.730037877e-12 -1.455042672e-11)
(-0 3.776757891e-13 -4.254296387e-13)
(-0 1.642761093e-07 -1.005821119e-07)
(-0 8.798836188e-06 -4.102176789)
(-0 2.685414401e-07 -1.289061247)
(-0 7.099816556e-10 -4.411944339e-10)
(-0 1.190008312e-14 -6.780426762e-15)
(-0 4.153101623e-15 -2.298562616e-15)
(-0 2.39872072e-15 -1.362637509e-15)
(-0 6.256173013e-16 -3.851230367e-16)
(-0 2.500155822e-16 -1.739785568e-16)
(-0 9.433636439e-17 -7.52628416e-17)
(-0 2.044917064e-17 -1.834455341e-17)
(-0 6.748270408e-18 -6.533279949e-18)
(-0 2.096108813e-18 -2.095696353e-18)
(-0 7.926703957e-19 -7.901847349e-19)
(-0 2.782140451e-19 -2.701252488e-19)
(-0 1.098012433e-19 -1.024276537e-19)
(-0 3.954149218e-20 -3.518906175e-20)
(-0 1.030524955e-20 -8.717891408e-21)
(-0 3.631769311e-21 -2.913492146e-21)
(-0 5.639330271e-22 -4.144137837e-22)
(-0 7.204265096e-23 -4.872550849e-23)
(-0 2.221612629e-23 -1.393682457e-23)
(-0 4.233845818e-24 1.656722277e-24)
(-0 -7.714782959e-24 4.628869776e-24)
(-0 -3.845780727e-24 -4.376233241e-24)
(-0 -4.129308336e-24 -3.358504113e-23)
(-0 9.738708677e-24 -1.115893703e-23)
(-0 1.967454489e-23 -1.502916624e-23)
(-0 -1.666529721e-24 1.111019814e-24)
(-0 -7.750225456e-24 -1.361526094e-24)
(-0 -0 0)
(-0 -0 0)
(-0 0 0)
(-0 0 0)
(-0 0 0)
(-0 -0 0)
(-0 -0 0)
(-0 -0 0)
(-0 -0 0)
(-0 0 -0)
(-0 0 -0)
(-0 0 -0)
(-0 -0 -0)
(-0 0 -0)
(-0 1.216270732e-12 -5.620648452e-12)
(-0 4.793406782e-12 -8.402371528e-12)
(-0 4.060767388e-11 -5.130008993e-11)
(-0 6.043675093e-11 -6.356791607e-11)
(-0 3.062550772e-11 -2.649409596e-11)
(-0 3.612338466e-12 -2.379828076e-12)
(-0 1.374838949e-07 -4.92556373e-08)
(-0 1.37853283e-05 -3.888296364)
(-0 4.216020136e-07 -1.326262646)
(-0 6.336232304e-10 -2.673883748e-10)
(-0 1.839729357e-14 -7.551279909e-15)
(-0 9.585113781e-15 -4.117141453e-15)
(-0 4.695805191e-15 -2.260811281e-15)
(-0 6.559665799e-16 -3.734557109e-16)
(-0 3.235680712e-16 -2.219754982e-16)
(-0 1.0822806e-16 -8.735289204e-17)
(-0 2.594252914e-17 -2.33711477e-17)
(-0 5.106558704e-18 -4.848724801e-18)
(-0 3.490839663e-18 -3.337505753e-18)
(-0 1.043775741e-18 -9.750355123e-19)
(-0 3.345165995e-19 -3.000462016e-19)
(-0 9.050568466e-20 -7.724913965e-20)
(-0 3.53295056e-20 -2.858221018e-20)
(-0 1.119581048e-20 -8.573200788e-21)
(-0 8.191146754e-21 -5.946339315e-21)
(-0 2.209220164e-21 -1.512996965e-21)
(-0 3.267506825e-22 -2.214495177e-22)
(-0 7.909474715e-23 -5.033302092e-23)
(-0 1.935005006e-23 -2.580006675e-23)
(-0 -4.075260148e-24 -1.444864962e-23)
(-0 -1.79761122e-23 -1.774856647e-23)
(-0 -1.148780814e-23 -9.612247624e-24)
(-0 1.576118568e-23 -1.411449464e-24)
(-0 2.007950484e-23 -1.186516195e-23)
(-0 1.412945415e-23 -2.194574794e-23)
(-0 -8.419191788e-24 -5.233551652e-24)
(-0 -2.413347355e-24 -5.899293535e-25)
(-0 -0 0)
(-0 0 0)
(-0 0 0)
(-0 0 -0)
(-0 -0 0)
(-0 -0 0)
(-0 -0 0)
(-0 -0 0)
(-0 -0 0)
(-0 0 -0)
(-0 0 -0)
(-0 -0 -0)
(-0 0 -0)
(-0 5.356276153e-12 -2.037432345e-11)
(-0 5.137690774e-12 -7.382660404e-12)
(-0 2.748170678e-11 -2.791750024e-11)
(-0 7.214058809e-11 -5.943124297e-11)
(-0 4.629293166e-11 -3.164657004e-11)
(-0 9.505063136e-12 -4.7642e-12)
(-0 1.128603433e-07 -3.074793346e-08)
(-0 1.852184906e-05 -4.073252678)
(-0 5.683342506e-07 -1.474331638)
(-0 5.240167745e-10 -1.938141016e-10)
(-0 3.637700331e-14 -1.415742021e-14)
(-0 1.878197827e-14 -8.356402428e-15)
(-0 1.954735248e-15 -1.05707237e-15)
(-0 2.746972794e-15 -1.844145437e-15)
(-0 1.24204825e-15 -1.006896549e-15)
(-0 5.477062961e-16 -5.042929233e-16)
(-0 1.748023402e-16 -1.709656037e-16)
(-0 5.639807902e-17 -5.55797113e-17)
(-0 1.398262532e-17 -1.342009334e-17)
(-0 6.315656815e-18 -5.792092798e-18)
(-0 2.800326424e-18 -2.431167698e-18)
(-0 8.497782205e-19 -6.957961465e-19)
(-0 2.889861666e-19 -2.2301108e-19)
(-0 7.119277784e-20 -5.183204142e-20)
(-0 1.888105668e-20 -1.298906779e-20)
(-0 3.105835531e-21 -2.025793106e-21)
(-0 1.851542182e-22 -1.146066009e-22)
(-0 8.676342184e-23 -5.287046846e-23)
(-0 6.477371066e-23 -5.716770675e-23)
(-0 4.148101128e-25 -5.115991391e-24)
(-0 3.006864113e-24 4.510296169e-24)
(-0 9.031288041e-24 1.346771024e-23)
(-0 7.873587054e-24 1.237277966e-23)
(-0 1.292819145e-24 6.464095725e-24)
(-0 6.548803111e-24 -8.826647671e-24)
(-0 -2.90439427e-24 -6.292854252e-24)
(-0 -3.597605826e-24 -2.158563496e-24)
(-0 -0 -0)
(-0 0 0)
(-0 0 0)
(-0 0 -0)
(-0 0 0)
(-0 -0 0)
(-0 -0 0)
(-0 -0 0)
(-0 -0 0)
(-0 -0 0)
(-0 0 -0)
(-0 -0 -0)
(-0 0 0)
(-0 8.169838544e-12 -3.170461821e-11)
(-0 2.049476536e-11 -2.966361172e-11)
(-0 8.966602602e-12 -8.914691269e-12)
(-0 6.694190774e-11 -5.269260612e-11)
(-0 8.664866297e-11 -5.523638698e-11)
(-0 1.95048741e-11 -8.780314463e-12)
(-0 4.397525433e-07 -1.069810818e-07)
(-0 2.36448749e-05 -4.785898132)
(-0 7.260141744e-07 -1.844462457)
(-0 2.166540267e-09 -8.498923427e-10)
(-0 7.787603762e-14 -3.497551907e-14)
(-0 6.283424653e-15 -3.466012266e-15)
(-0 1.762575602e-14 -1.223079453e-14)
(-0 3.819693575e-15 -3.238236832e-15)
(-0 1.527220768e-15 -1.480079097e-15)
(-0 1.923960962e-16 -1.981029411e-16)
(-0 2.457444237e-16 -2.538298253e-16)
(-0 7.171983157e-17 -7.166788358e-17)
(-0 9.864039757e-18 -9.351697366e-18)
(-0 5.819197906e-18 -5.1874249e-18)
(-0 1.964667548e-18 -1.641759215e-18)
(-0 1.139677274e-18 -8.928266842e-19)
(-0 4.808889617e-19 -3.537549069e-19)
(-0 1.956949455e-19 -1.354912913e-19)
(-0 5.193156069e-20 -3.393250938e-20)
(-0 1.146825709e-20 -7.093510005e-21)
(-0 3.258759492e-21 -1.909133548e-21)
(-0 1.128724795e-21 -6.390440272e-22)
(-0 1.991316492e-22 -1.066375799e-22)
(-0 2.74048512e-23 -4.001593318e-24)
(-0 8.497984896e-24 1.202153961e-23)
(-0 -1.359774108e-24 4.41926585e-24)
(-0 1.256465836e-24 5.384853582e-25)
(-0 4.712331925e-25 2.591782559e-24)
(-0 -1.350091451e-24 -1.890128032e-24)
(-0 -6.544208053e-24 -6.828738838e-24)
(-0 -7.373928139e-24 1.70989638e-24)
(-0 -4.290395298e-25 -1.877047943e-24)
(-0 0 0)
(-0 0 -0)
(-0 0 -0)
(-0 0 0)
(-0 -0 0)
(-0 -0 0)
(-0 -0 0)
(-0 -0 0)
(-0 -0 -0)
(-0 0 -0)
(-0 0 -0)
(-0 0 0)
(-0 4.354913856e-12 -2.060860128e-11)
(-0 2.542674349e-11 -4.300000446e-11)
(-0 3.115973899e-11 -3.410993072e-11)
(-0 2.167073235e-11 -1.774468923e-11)
(-0 1.100639011e-10 -6.98001601e-11)
(-0 7.379791359e-11 -3.298630674e-11)
(-0 1.013421878e-06 -2.374114439e-07)
(-0 2.966488178e-05 -6.228165844)
(-0 9.138221839e-07 -2.67095043)
(-0 5.067537723e-09 -2.500566143e-09)
(-0 2.557155544e-14 -1.536711856e-14)
(-0 7.134398464e-14 -5.37066056e-14)
(-0 1.933213615e-14 -1.772192699e-14)
(-0 3.314738244e-15 -3.457809605e-15)
(-0 1.483473259e-15 -1.632532258e-15)
(-0 5.914928801e-16 -6.471184972e-16)
(-0 4.827809421e-16 -5.061363221e-16)
(-0 1.659125864e-16 -1.635387436e-16)
(-0 1.751765508e-17 -1.610499054e-17)
(-0 1.369162127e-17 -1.171695589e-17)
(-0 7.267097066e-18 -5.794910822e-18)
(-0 1.389166753e-18 -1.034739509e-18)
(-0 1.001038076e-19 -6.985985616e-20)
(-0 1.838080012e-19 -1.205653498e-19)
(-0 2.880593855e-20 -1.781689361e-20)
(-0 2.393917448e-20 -1.399687919e-20)
(-0 6.190902238e-21 -3.429434603e-21)
(-0 1.97811981e-21 -1.041885949e-21)
(-0 8.270803931e-22 -4.046887369e-22)
(-0 1.821994811e-22 -8.041206151e-23)
(-0 9.286867662e-24 -1.021555443e-23)
(-0 -0 -9.895589155e-24)
(-0 4.336191157e-24 -2.168095578e-24)
(-0 -1.720565524e-24 -4.817583469e-24)
(-0 -2.303570919e-24 -3.769479685e-24)
(-0 2.231057095e-24 -5.679054423e-24)
(-0 -7.649956939e-24 1.529991388e-24)
(-0 -9.117090009e-25 8.044491184e-25)
(-0 0 0)
(-0 0 0)
(-0 0 0)
(-0 0 -0)
(-0 -0 0)
(-0 -0 0)
(-0 -0 0)
(-0 -0 0)
(-0 -0 -0)
(-0 -0 -0)
(-0 0 -0)
(-0 0 -0)
(-0 8.522177674e-13 -6.103668718e-12)
(-0 1.004924049e-11 -2.268056748e-11)
(-0 3.862619413e-11 -4.988683873e-11)
(-0 4.943177046e-11 -4.363269913e-11)
(-0 5.59110552e-11 -3.591032937e-11)
(-0 1.596216134e-10 -7.144373425e-11)
(-0 1.436465989e-06 -3.255607878e-07)
(-0 3.698849007e-05 -8.751050818)
(-0 1.149935318e-06 -4.473471012)
(-0 7.366133064e-09 -5.183603282e-09)
(-0 1.416417248e-13 -1.225516149e-13)
(-0 9.210031653e-14 -9.517223479e-14)
(-0 4.364006227e-15 -5.039054059e-15)
(-0 2.727694257e-15 -3.267920514e-15)
(-0 6.456065897e-15 -7.574748636e-15)
(-0 2.61017697e-15 -2.895938494e-15)
(-0 1.47218283e-15 -1.518236122e-15)
(-0 1.994170995e-16 -1.899623875e-16)
(-0 4.308019024e-17 -3.788742303e-17)
(-0 4.25432507e-17 -3.46221369e-17)
(-0 2.63869596e-17 -1.994000072e-17)
(-0 8.777886381e-18 -6.183133774e-18)
(-0 2.44285873e-18 -1.610144716e-18)
(-0 4.422078684e-19 -2.737346431e-19)
(-0 1.807235502e-19 -1.054194817e-19)
(-0 4.734882445e-20 -2.610237008e-20)
(-0 8.759184193e-21 -4.57645046e-21)
(-0 6.52404988e-21 -3.239947376e-21)
(-0 2.167922611e-21 -1.017013481e-21)
(-0 3.771385631e-22 -1.755695402e-22)
(-0 5.642595627e-23 -3.032584434e-23)
(-0 6.007511019e-24 1.065848729e-24)
(-0 1.440223422e-23 3.520546142e-24)
(-0 -1.280572596e-24 2.988002724e-24)
(-0 -4.904048789e-24 8.582085381e-24)
(-0 9.05977395e-25 -3.01992465e-24)
(-0 -5.04578022e-24 -1.133513642e-36)
(-0 -9.930189118e-25 7.80229145e-25)
(-0 0 -0)
(-0 0 0)
(-0 0 -0)
(-0 0 0)
(-0 0 0)
(-0 -0 0)
(-0 -0 0)
(-0 -0 0)
(-0 -0 -0)
(-0 -0 -0)
(-0 0 -0)
(-0 0 -0)
(-0 1.534866344e-13 -3.049004988e-12)
(-0 1.218296183e-12 -4.691527087e-12)
(-0 1.266188154e-11 -2.099766484e-11)
(-0 6.163292766e-11 -6.053612588e-11)
(-0 8.716910689e-11 -5.694351718e-11)
(-0 1.202071728e-10 -5.274867056e-11)
(-0 1.93439361e-06 -4.289740113e-07)
(-0 4.564303867e-05 -13.48831713)
(-0 1.440830783e-06 -8.425086694)
(-0 1.086120001e-08 -1.148917494e-08)
(-0 2.168111198e-13 -2.660281974e-13)
(-0 4.714330155e-14 -6.256707451e-14)
(-0 3.774007607e-14 -5.048611704e-14)
(-0 2.171559262e-14 -2.778859011e-14)
(-0 8.974492384e-15 -1.065941734e-14)
(-0 5.078554818e-15 -5.524334832e-15)
(-0 3.174397704e-15 -3.151644622e-15)
(-0 1.700663355e-15 -1.543701449e-15)
(-0 3.892056188e-16 -3.242742203e-16)
(-0 2.69317894e-16 -2.069453616e-16)
(-0 6.461610527e-17 -4.601499301e-17)
(-0 1.232481283e-17 -8.171894328e-18)
(-0 9.25913325e-18 -5.74068479e-18)
(-0 2.172543072e-18 -1.264494277e-18)
(-0 1.925489795e-19 -1.055808362e-19)
(-0 5.812320986e-20 -3.012217333e-20)
(-0 3.46869849e-20 -1.704340601e-20)
(-0 9.129856242e-21 -4.260401126e-21)
(-0 4.658968053e-21 -2.067519531e-21)
(-0 1.061351416e-21 -4.48477285e-22)
(-0 9.107787919e-23 -3.040393908e-23)
(-0 3.391656394e-23 -3.106860819e-24)
(-0 1.824044895e-24 -3.800093532e-25)
(-0 4.374706516e-24 7.082858169e-24)
(-0 -1.048154784e-23 1.717809229e-23)
(-0 -6.445972936e-24 2.242077543e-24)
(-0 -3.188555934e-24 3.859830868e-24)
(-0 -5.307634183e-24 2.698797042e-25)
(-0 0 -0)
(-0 0 -0)
(-0 0 0)
(-0 0 0)
(-0 0 0)
(-0 -0 -0)
(-0 -0 0)
(-0 -0 0)
(-0 -0 -0)
(-0 -0 -0)
(-0 0 0)
(-0 0 -0)
(-0 -4.119291366e-13 -1.023964517e-11)
(-0 1.003181389e-13 -2.030679228e-12)
(-0 1.12185786e-12 -2.879132353e-12)
(-0 1.823651127e-11 -2.12522285e-11)
(-0 8.409813733e-11 -5.844729598e-11)
(-0 1.258851e-10 -5.591937547e-11)
(-0 2.46841995e-06 -5.794359978e-07)
(-0 5.588265341e-05 -23.53089225)
(-0 1.821840737e-06 -17.13880013)
(-0 1.688990148e-08 -2.615873649e-08)
(-0 5.084394932e-13 -8.14704301e-13)
(-0 1.047498379e-13 -1.620063401e-13)
(-0 3.388069879e-14 -4.840258952e-14)
(-0 7.65001397e-14 -9.880698093e-14)
(-0 4.405324537e-14 -5.109198623e-14)
(-0 1.01154319e-14 -1.054689408e-14)
(-0 7.234447476e-15 -6.814569179e-15)
(-0 2.713572496e-15 -2.32372407e-15)
(-0 1.612324522e-15 -1.263307954e-15)
(-0 3.029689789e-16 -2.185420718e-16)
(-0 1.786851432e-16 -1.193303959e-16)
(-0 4.718497333e-17 -2.932233583e-17)
(-0 1.533279401e-17 -8.906885425e-18)
(-0 2.436080297e-18 -1.328238119e-18)
(-0 1.041545421e-18 -5.349669608e-19)
(-0 3.656549753e-19 -1.77508798e-19)
(-0 6.980217165e-20 -3.21234115e-20)
(-0 3.178613552e-20 -1.389858319e-20)
(-0 8.90441888e-21 -3.706815693e-21)
(-0 1.453536225e-21 -5.753786361e-22)
(-0 4.468144953e-22 -1.635531432e-22)
(-0 4.290262756e-23 -1.66172149e-23)
(-0 1.732313515e-23 -6.705729736e-24)
(-0 1.169079829e-23 -4.175285105e-24)
(-0 -1.214734649e-23 -7.922182492e-24)
(-0 -9.13438999e-24 9.13438999e-24)
(-0 -6.460250502e-24 3.523773001e-24)
(-0 -4.984124538e-24 1.48779837e-25)
(-0 0 0)
(-0 0 0)
(-0 0 0)
(-0 0 -0)
(-0 0 -0)
(-0 -0 -0)
(-0 -0 -0)
(-0 -0 0)
(-0 -0 0)
(-0 0 -0)
(-0 0 -0)
(-0 0 0)
(-0 -7.330897365e-13 -7.160091698e-12)
(-0 -7.606088548e-13 -4.914151124e-12)
(-0 2.29407931e-13 -1.749647624e-12)
(-0 2.086553766e-12 -3.286907956e-12)
(-0 2.462403158e-11 -1.958597133e-11)
(-0 7.776526781e-11 -3.738149887e-11)
(-0 2.644329881e-06 -7.045489776e-07)
(-0 6.908797015e-05 -44.59448374)
(-0 2.413317911e-06 -36.0829669)
(-0 2.745590774e-08 -5.696144381e-08)
(-0 5.077937287e-13 -9.537883851e-13)
(-0 7.98470563e-14 -1.31601407e-13)
(-0 2.501071237e-13 -3.589540579e-13)
(-0 7.808425615e-14 -9.796073332e-14)
(-0 2.382247608e-14 -2.63447224e-14)
(-0 8.174387544e-15 -8.046021415e-15)
(-0 1.270173487e-14 -1.123392629e-14)
(-0 2.602683491e-15 -2.086525115e-15)
(-0 2.882640821e-15 -2.111113955e-15)
(-0 1.607444204e-15 -1.082832317e-15)
(-0 1.981687026e-16 -1.235342e-16)
(-0 1.46574065e-16 -8.500452578e-17)
(-0 1.394690316e-17 -7.560131934e-18)
(-0 2.546203101e-18 -1.295426866e-18)
(-0 2.466507657e-18 -1.182157687e-18)
(-0 1.326549626e-18 -6.009360503e-19)
(-0 3.443994311e-19 -1.478978901e-19)
(-0 4.285388993e-20 -1.749525214e-20)
(-0 7.331082904e-21 -2.849403146e-21)
(-0 3.379570074e-21 -1.24903432e-21)
(-0 6.239737875e-22 -2.223107986e-22)
(-0 1.386765837e-22 -4.329721393e-23)
(-0 2.748144206e-23 -8.025553876e-24)
(-0 5.357598279e-24 -9.758482579e-24)
(-0 3.186200496e-24 -8.246636577e-24)
(-0 5.677846925e-24 8.393338933e-24)
(-0 -9.0639354e-24 -1.631508372e-24)
(-0 -1.448008413e-24 1.501638354e-24)
(-0 0 0)
(-0 0 0)
(-0 0 -0)
(-0 0 -0)
(-0 -0 -0)
(-0 -0 -0)
(-0 -0 -0)
(-0 -0 0)
(-0 -0 0)
(-0 -0 -0)
(-0 0 -0)
(-0 0 0)
(-0 -4.360375947e-13 -3.454985118e-12)
(-0 -1.98213779e-12 -6.455478967e-12)
(-0 -3.045964412e-13 -2.039386641e-12)
(-0 6.887166469e-13 -1.930803191e-12)
(-0 5.104326036e-12 -5.054320388e-12)
(-0 4.081867509e-10 -2.235227822e-10)
(-0 3.036610418e-06 -9.296170396e-07)
(-0 9.26328159e-05 -87.63860295)
(-0 3.375419205e-06 -76.32651361)
(-0 3.415476787e-08 -8.463299761e-08)
(-0 4.029872761e-13 -8.056166682e-13)
(-0 8.978298981e-13 -1.477107112e-12)
(-0 2.5197192e-13 -3.488267114e-13)
(-0 1.427429425e-13 -1.69646451e-13)
(-0 3.98448606e-14 -4.134856797e-14)
(-0 3.770777448e-14 -3.465587955e-14)
(-0 5.429800358e-15 -4.472426307e-15)
(-0 1.211944773e-14 -9.036366083e-15)
(-0 6.741457085e-15 -4.588744269e-15)
(-0 2.483672064e-15 -1.554553709e-15)
(-0 1.984191807e-16 -1.149141805e-16)
(-0 2.457322868e-16 -1.323980545e-16)
(-0 4.565371155e-17 -2.299228265e-17)
(-0 2.374233021e-17 -1.122352199e-17)
(-0 1.659849224e-17 -7.39236744e-18)
(-0 2.695326642e-18 -1.134672032e-18)
(-0 4.022373598e-19 -1.605355819e-19)
(-0 1.721375982e-19 -6.530979848e-20)
(-0 2.411434194e-20 -8.714386611e-21)
(-0 4.697118345e-21 -1.618781659e-21)
(-0 1.250658966e-21 -4.128290341e-22)
(-0 3.312546501e-22 -1.005079414e-22)
(-0 4.173131911e-23 -6.536230703e-24)
(-0 8.150520296e-24 7.03908571e-24)
(-0 8.660626411e-24 1.154750188e-23)
(-0 1.175360254e-24 7.346001585e-24)
(-0 -3.811782206e-24 -2.206821277e-24)
(-0 -0 0)
(-0 0 -0)
(-0 0 0)
(-0 -0 -0)
(-0 0 -0)
(-0 0 -0)
(-0 -0 -0)
(-0 -0 -0)
(-0 -0 -0)
(-0 -0 -0)
(-0 -0 -0)
(-0 0 -0)
(-0 0 -0)
(-0 -1.6878958e-13 -1.262991422e-12)
(-0 -2.072213896e-12 -5.25386782e-12)
(-0 -1.779049565e-12 -4.294650846e-12)
(-0 7.746679336e-14 -2.012695947e-12)
(-0 2.597901068e-12 -3.624744947e-12)
(-0 5.341168431e-11 -3.481794327e-11)
(-0 8.705074138e-05 -4.917953664e-05)
(-0 0.0001382873564 -174.6897033)
(-0 4.926048052e-06 -159.4149469)
(-0 4.905925755e-08 -1.303124009e-07)
(-0 1.532146327e-12 -3.034599532e-12)
(-0 1.107062105e-12 -1.740628349e-12)
(-0 8.795929407e-13 -1.143819118e-12)
(-0 4.426587906e-13 -4.899845591e-13)
(-0 2.11544608e-13 -2.036019272e-13)
(-0 9.783384864e-14 -8.322126415e-14)
(-0 7.422694451e-14 -5.653362976e-14)
(-0 5.357887421e-15 -3.692520395e-15)
(-0 1.948015581e-14 -1.225484782e-14)
(-0 7.053824523e-15 -4.080658993e-15)
(-0 1.318828528e-15 -7.060247347e-16)
(-0 1.843919578e-16 -9.184634311e-17)
(-0 1.905015749e-16 -8.870878565e-17)
(-0 1.3085728e-16 -5.720389278e-17)
(-0 2.379767827e-17 -9.802265467e-18)
(-0 5.785901818e-18 -2.252985454e-18)
(-0 2.371737698e-18 -8.756541715e-19)
(-0 3.351755159e-19 -1.176478428e-19)
(-0 4.652276312e-20 -1.556543408e-20)
(-0 8.623397496e-21 -2.757696849e-21)
(-0 3.185809588e-21 -9.788824044e-22)
(-0 5.800059616e-22 -1.79962698e-22)
(-0 1.14941074e-22 -2.66419708e-23)
(-0 2.752029762e-23 1.182690476e-23)
(-0 1.009204444e-24 1.892258332e-23)
(-0 -1.044466208e-23 9.864403072e-24)
(-0 -3.306026377e-24 9.445789648e-25)
(-0 -0 0)
(-0 0 0)
(-0 0 -0)
(-0 -0 0)
(-0 0 0)
(-0 0 0)
(-0 -0 0)
(-0 -0 -0)
(-0 -0 -0)
(-0 -0 -0)
(-0 -0 -0)
(-0 0 -0)
(-0 0 -0)
(-0 -3.139186618e-14 -2.2555515e-13)
(-0 -1.344056404e-12 -3.06391076e-12)
(-0 -3.302296928e-12 -5.1982013e-12)
(-0 -6.369830265e-13 -2.02101395e-12)
(-0 1.492012917e-12 -3.913745664e-12)
(-0 5.194940067e-10 -4.307613162e-10)
(-0 0.0001423299787 -0.0001575675555)
(-0 0.0001123322835 -347.5545113)
(-0 7.960348923e-06 -324.6685334)
(-0 9.816949665e-08 -2.560183894e-07)
(-0 4.038688762e-12 -7.542674869e-12)
(-0 5.449294839e-13 -7.95370145e-13)
(-0 9.972715648e-13 -1.195945379e-12)
(-0 1.07763332e-12 -1.09692029e-12)
(-0 4.278101222e-13 -3.782103331e-13)
(-0 3.217945066e-13 -2.513533384e-13)
(-0 4.240502849e-14 -2.965800606e-14)
(-0 8.690710964e-14 -5.501125829e-14)
(-0 9.598887176e-15 -5.547737024e-15)
(-0 1.003202324e-14 -5.333224243e-15)
(-0 3.995577118e-15 -1.966151456e-15)
(-0 2.148270282e-15 -9.838187432e-16)
(-0 5.930163643e-16 -2.539397264e-16)
(-0 1.056174707e-16 -4.246571716e-17)
(-0 6.039479881e-17 -2.288422628e-17)
(-0 1.923670717e-17 -6.891673205e-18)
(-0 3.765016641e-18 -1.279079668e-18)
(-0 4.41291436e-19 -1.425417218e-19)
(-0 8.514784867e-20 -2.621636706e-20)
(-0 2.921093712e-20 -8.587982535e-21)
(-0 4.442510571e-21 -1.258566701e-21)
(-0 8.279725705e-22 -2.308689815e-22)
(-0 2.463085552e-22 -6.211945148e-23)
(-0 2.979561024e-23 -2.635765521e-24)
(-0 5.680325419e-24 4.783431931e-24)
(-0 -4.415477452e-24 2.246470984e-24)
(-0 -0 0)
(-0 -0 0)
(-0 0 0)
(-0 0 0)
(-0 0 0)
(-0 0 0)
(-0 0 0)
(-0 -0 0)
(-0 -0 0)
(-0 -0 -0)
(-0 -0 0)
(-0 -0 -0)
(-0 0 0)
(-0 0 0)
(-0 -2.389467436e-15 -1.724685724e-14)
(-0 -5.608960645e-13 -1.219504659e-12)
(-0 -3.629997632e-12 -4.538227543e-12)
(-0 -2.328984757e-12 -3.27650238e-12)
(-0 -2.504224678e-14 -1.933827419e-12)
(-0 9.604890138e-11 -1.146700455e-10)
(-0 3.137914083e-05 -1.66396137e-05)
(-0 4.34946217e-05 -678.6660021)
(-0 1.434110657e-05 -638.1374078)
(-0 1.050327425e-07 -2.520873657e-07)
(-0 1.23956718e-12 -2.11000846e-12)
(-0 1.89589547e-12 -2.516308475e-12)
(-0 7.259633017e-13 -7.915552719e-13)
(-0 1.0557107e-12 -9.775992235e-13)
(-0 5.012773517e-13 -4.034519737e-13)
(-0 1.764116389e-13 -1.255399615e-13)
(-0 2.442398529e-13 -1.557317536e-13)
(-0 8.543049238e-14 -4.932818241e-14)
(-0 5.392801646e-14 -2.844516878e-14)
(-0 3.745250196e-14 -1.817864491e-14)
(-0 1.559923321e-14 -7.010873054e-15)
(-0 2.459536609e-15 -1.029056498e-15)
(-0 7.800983228e-16 -3.052683419e-16)
(-0 4.893398674e-16 -1.798350152e-16)
(-0 1.319249715e-16 -4.569870575e-17)
(-0 2.536060071e-17 -8.307332244e-18)
(-0 2.528837506e-18 -7.856271962e-19)
(-0 2.23800097e-19 -6.611284727e-20)
(-0 2.298035052e-20 -6.469883242e-21)
(-0 4.792214686e-21 -1.288993156e-21)
(-0 8.410437683e-22 -2.167497325e-22)
(-0 7.501268062e-22 -1.847230666e-22)
(-0 2.81903775e-22 -6.7656906e-23)
(-0 4.046810223e-23 -1.048531128e-23)
(-0 8.221673248e-24 -6.166254936e-24)
(-0 -1.746338615e-24 -3.880752477e-25)
(-0 -0 0)
(-0 -0 0)
(-0 0 0)
(-0 0 -0)
(-0 0 0)
(-0 0 -0)
(-0 0 0)
(-0 -0 0)
(-0 -0 0)
(-0 -0 0)
(-0 -0 0)
(-0 -0 -0)
(-0 0 -0)
(-0 0 0)
(-0 -5.803355431e-17 -4.261847186e-16)
(-0 -9.638264093e-14 -2.094443176e-13)
(-0 -2.422403637e-12 -2.771419251e-12)
(-0 -4.970892088e-12 -4.511729323e-12)
(-0 -1.252391737e-12 -2.435665151e-12)
(-0 2.623191653e-11 -6.269053662e-11)
(-0 8.589968235e-06 -5.627125612e-06)
(-0 0.0001698081436 -1277.484928)
(-0 2.66232738e-05 -1198.931838)
(-0 1.1050727e-08 -2.335659429e-08)
(-0 1.790044623e-12 -2.710410755e-12)
(-0 1.807269879e-12 -2.146222471e-12)
(-0 2.680293253e-12 -2.624840458e-12)
(-0 2.939775161e-12 -2.45143418e-12)
(-0 5.506575706e-13 -3.998529618e-13)
(-0 9.339849612e-13 -6.004855877e-13)
(-0 3.817284838e-13 -2.201306885e-13)
(-0 1.383193393e-13 -7.229103164e-14)
(-0 2.103174606e-13 -1.004771015e-13)
(-0 5.64072861e-14 -2.48105086e-14)
(-0 1.27709203e-14 -5.203436486e-15)
(-0 8.274920283e-15 -3.139753647e-15)
(-0 1.46942356e-15 -5.216105104e-16)
(-0 1.729926153e-16 -5.768449964e-17)
(-0 6.013697142e-17 -1.890476992e-17)
(-0 2.659467421e-17 -7.907187533e-18)
(-0 8.857884508e-18 -2.498116408e-18)
(-0 1.538998141e-18 -4.127713815e-19)
(-0 3.061666582e-19 -7.827872132e-20)
(-0 8.5982387e-20 -2.100585061e-20)
(-0 1.824994619e-20 -4.26816499e-21)
(-0 5.364799448e-21 -1.20024331e-21)
(-0 8.842598945e-22 -1.944313325e-22)
(-0 1.782545891e-22 -5.099733941e-23)
(-0 3.880313207e-23 -2.64454467e-23)
(-0 6.574829743e-24 -5.113756467e-24)
(-0 -2.304121081e-24 -3.447893341e-37)
(-0 -0 0)
(-0 0 0)
(-0 0 0)
(-0 0 0)
(-0 0 -0)
(-0 0 0)
(-0 -0 0)
(-0 -0 0)
(-0 -0 0)
(-0 -0 0)
(-0 -0 -0)
(-0 0 -0)
(-0 0 -0)
(-0 -7.427642854e-18 -5.499405661e-17)
(-0 -1.454701707e-15 -3.161887794e-15)
(-0 -9.43447575e-13 -1.065600985e-12)
(-0 -5.145532497e-12 -3.91243847e-12)
(-0 -4.271394984e-12 -3.798044175e-12)
(-0 -2.883317352e-12 -2.990218446e-11)
(-0 2.561840222e-06 -2.400418345e-06)
(-0 0.0001946312189 -2277.338193)
(-0 5.079643682e-05 -2133.260451)
(-0 1.814650879e-11 -3.279283801e-11)
(-0 1.582895793e-11 -2.092574056e-11)
(-0 1.220058719e-11 -1.278358082e-11)
(-0 6.692938189e-12 -5.818317154e-12)
(-0 7.029028772e-12 -5.223058363e-12)
(-0 8.041207374e-13 -5.216449918e-13)
(-0 2.151968966e-12 -1.238255229e-12)
(-0 1.905296726e-12 -9.846039277e-13)
(-0 7.102927083e-13 -3.329887086e-13)
(-0 2.687426069e-14 -1.152489954e-14)
(-0 1.412788183e-13 -5.581278881e-14)
(-0 1.087003484e-14 -3.979704809e-15)
(-0 9.314045595e-15 -3.17672137e-15)
(-0 3.961230226e-15 -1.264347309e-15)
(-0 9.195386129e-16 -2.757680779e-16)
(-0 3.277118642e-16 -9.267283232e-17)
(-0 1.086715463e-16 -2.907018724e-17)
(-0 2.478498442e-17 -6.289833769e-18)
(-0 5.678870058e-18 -1.370752972e-18)
(-0 6.18002593e-19 -1.422256878e-19)
(-0 1.484140044e-19 -3.263187015e-20)
(-0 3.499465095e-20 -7.368904793e-21)
(-0 7.002054301e-21 -1.411408851e-21)
(-0 1.251485543e-21 -2.41804464e-22)
(-0 3.869812929e-22 -9.097904568e-23)
(-0 6.075224985e-23 -2.610638849e-23)
(-0 2.139389493e-23 -4.862248848e-24)
(-0 -2.211493191e-24 2.010448356e-25)
(-0 -1.126228766e-24 -6.435592947e-25)
(-0 0 0)
(-0 0 -0)
(-0 -0 0)
(-0 0 0)
(-0 0 0)
(-0 -0 -0)
(-0 -0 0)
(-0 -0 0)
(-0 -0 0)
(-0 -0 0)
(-0 0 0)
(-0 0 -0)
(-0 -5.866717747e-19 -4.24677521e-18)
(-0 -2.93990432e-17 -6.215821418e-17)
(-0 -9.507311488e-14 -1.056734154e-13)
(-0 -2.843722918e-12 -2.084403452e-12)
(-0 -6.024942905e-12 -3.75681175e-12)
(-0 -1.28027291e-11 -1.657952048e-11)
(-0 1.048754601e-06 -1.869268954e-06)
(-0 0.0001870372871 -3785.935018)
(-0 7.679900919e-05 -3562.870039)
(-0 5.615552131e-08 -8.503585995e-08)
(-0 9.943498004e-12 -1.129884826e-11)
(-0 1.874793921e-11 -1.710044842e-11)
(-0 1.147513336e-11 -8.747022308e-12)
(-0 5.803198315e-12 -3.798031682e-12)
(-0 5.405473482e-12 -3.097553649e-12)
(-0 1.01364882e-11 -5.162521536e-12)
(-0 6.046769904e-13 -2.769739393e-13)
(-0 1.898403193e-12 -7.89673635e-13)
(-0 1.586296831e-13 -6.040737204e-14)
(-0 2.004769426e-13 -7.036958023e-14)
(-0 4.379467808e-14 -1.425304163e-14)
(-0 1.849977113e-15 -5.61092354e-16)
(-0 1.768609718e-15 -5.021407303e-16)
(-0 4.583451784e-16 -1.223010302e-16)
(-0 3.894175394e-16 -9.800026001e-17)
(-0 6.33426394e-17 -1.508180107e-17)
(-0 7.971028795e-18 -1.8007437e-18)
(-0 5.830750965e-18 -1.253035089e-18)
(-0 7.22249452e-19 -1.479910297e-19)
(-0 1.462053144e-19 -2.862750141e-20)
(-0 6.672853957e-20 -1.250467795e-20)
(-0 1.509505993e-20 -2.708862248e-21)
(-0 2.91041723e-21 -4.957763094e-22)
(-0 5.395403266e-22 -1.049745305e-22)
(-0 1.278648242e-22 -2.672708914e-23)
(-0 4.045785506e-23 -2.974842284e-24)
(-0 -3.247534083e-24 -9.336660489e-24)
(-0 -2.657277088e-24 -5.203834297e-24)
(-0 0 -0)
(-0 0 -0)
(-0 0 0)
(-0 0 0)
(-0 0 -0)
(-0 -0 -0)
(-0 -0 0)
(-0 -0 0)
(-0 -0 0)
(-0 -0 -0)
(-0 0 -0)
(-0 0 0)
(-0 -1.010960397e-22 -6.801815701e-22)
(-0 -2.43681888e-18 -4.785831665e-18)
(-0 -5.52009714e-17 -5.760822837e-17)
(-0 -8.838937429e-13 -6.309655995e-13)
(-0 -3.891709309e-12 -2.227694583e-12)
(-0 -7.269194741e-12 -4.879292763e-12)
(-0 -1.205465951e-07 -2.224238289e-06)
(-0 0.0001224397137 -5801.85104)
(-0 -2.118681822e-05 -5538.800513)
(-0 1.656001944e-05 -2.096263312e-05)
(-0 5.424137722e-11 -5.219903485e-11)
(-0 1.644979954e-11 -1.287624018e-11)
(-0 2.539779468e-11 -1.674037819e-11)
(-0 7.721313102e-13 -4.390167467e-13)
(-0 1.549578954e-11 -7.737853144e-12)
(-0 4.334126393e-12 -1.927506973e-12)
(-0 4.264926e-12 -1.708357263e-12)
(-0 1.624751632e-12 -5.916372775e-13)
(-0 6.188312252e-13 -2.064558933e-13)
(-0 2.363588897e-13 -7.27278549e-14)
(-0 7.727382651e-14 -2.20560475e-14)
(-0 2.753827111e-14 -7.3277777e-15)
(-0 5.167506461e-15 -1.287565554e-15)
(-0 5.287410892e-16 -1.238451481e-16)
(-0 4.369256019e-16 -9.653907707e-17)
(-0 1.340527403e-16 -2.802772845e-17)
(-0 5.018479373e-17 -9.956911196e-18)
(-0 1.212510969e-17 -2.288697627e-18)
(-0 1.572944503e-18 -2.83118348e-19)
(-0 5.846943023e-19 -1.005772802e-19)
(-0 9.91239861e-20 -1.632072293e-20)
(-0 1.144774366e-20 -1.807768072e-21)
(-0 3.204857831e-21 -4.888517791e-22)
(-0 5.042148564e-22 -7.611125031e-23)
(-0 1.816145924e-22 -2.796383625e-23)
(-0 4.115726937e-23 -2.532755038e-23)
(-0 -1.374479825e-23 -9.449548795e-24)
(-0 2.672340341e-24 -6.923790882e-24)
(-0 0 -0)
(-0 0 0)
(-0 0 0)
(-0 -0 -0)
(-0 0 -0)
(-0 0 0)
(-0 -0 -0)
(-0 -0 0)
(-0 -0 -0)
(-0 -0 0)
(-0 0 0)
(-0 0 0)
(-0 -2.732313801e-29 -1.621812263e-28)
(-0 -4.350166945e-22 -7.558136035e-22)
(-0 -4.404794568e-23 -4.094604966e-23)
(-0 -3.46481959e-13 -2.259184239e-13)
(-0 -1.753162468e-12 -9.402861276e-13)
(-0 -1.019139056e-12 -5.1983037e-13)
(-0 -1.699592939e-06 -2.025134239e-06)
(-0 -3.194643121e-05 -8135.549558)
(-0 -0.0002249041522 -7948.475349)
(-0 0.000142746695 -0.0001797689687)
(-0 3.156045205e-11 -2.530848189e-11)
(-0 2.676205656e-11 -1.767757655e-11)
(-0 7.179137385e-11 -4.022675719e-11)
(-0 1.716855867e-11 -8.336500812e-12)
(-0 2.581073034e-11 -1.103980492e-11)
(-0 1.289558042e-11 -4.922282318e-12)
(-0 1.186284748e-12 -4.084149061e-13)
(-0 2.397330326e-12 -7.510774136e-13)
(-0 9.110639008e-13 -2.617096467e-13)
(-0 7.152886612e-14 -1.896155117e-14)
(-0 1.690596254e-14 -4.15901285e-15)
(-0 2.624234698e-14 -6.02065731e-15)
(-0 5.463964436e-15 -1.174146114e-15)
(-0 7.51797116e-16 -1.519008473e-16)
(-0 8.676444043e-16 -1.654022138e-16)
(-0 7.876959814e-17 -1.421155584e-17)
(-0 5.877955346e-17 -1.006481787e-17)
(-0 8.551460459e-18 -1.393211574e-18)
(-0 2.244898792e-18 -3.488017325e-19)
(-0 1.030998362e-18 -1.53095353e-19)
(-0 2.47140649e-19 -3.513836209e-20)
(-0 2.535715307e-20 -3.459173568e-21)
(-0 2.869269998e-21 -3.788744741e-22)
(-0 7.574895413e-22 -9.452527901e-23)
(-0 1.933195816e-22 -2.68638899e-23)
(-0 4.801667783e-23 -1.633054525e-23)
(-0 2.262364631e-24 -5.494314104e-24)
(-0 1.527485463e-24 -2.67309956e-24)
(-0 1.911647905e-24 -1.349398521e-25)
(-0 0 0)
(-0 0 0)
(-0 -0 -0)
(-0 0 -0)
(-0 0 -0)
(-0 -0 -0)
(-0 -0 -0)
(-0 -0 -0)
(-0 -0 0)
(-0 0 0)
(-0 0 0)
(-0 -6.402503182e-39 -3.199609658e-38)
(-0 -1.197012344e-28 -1.75715176e-28)
(-0 -1.211203268e-26 -9.610184789e-27)
(-0 -1.01323478e-13 -5.73116512e-14)
(-0 -7.810083169e-13 -3.802140665e-13)
(-0 -3.128040357e-13 -1.425388628e-13)