/*--------------------------------*- C++ -*----------------------------------*\
  =========                 |
  \\      /  F ield         | OpenFOAM: The Open Source CFD Toolbox
   \\    /   O peration     | Website:  https://openfoam.org
    \\  /    A nd           | Version:  6
     \\/     M anipulation  |
\*---------------------------------------------------------------------------*/
FoamFile
{
    version     2.0;
    format      ascii;
    class       volScalarField;
    location    "0.07";
    object      Num_divU;
}
// * * * * * * * * * * * * * * * * * * * * * * * * * * * * * * * * * * * * * //

dimensions      [0 0 -1 0 0 0 0];

internalField   nonuniform List<scalar> 
2500
(
-3.025738448e-07
3.350854895e-07
1.544340459e-08
-2.900285594e-07
-2.599798795e-07
-1.57083896e-10
7.133150079e-08
8.060025791e-08
1.865409152e-07
1.21861181e-21
-2.218015832e-17
-4.985891145e-17
-7.585282549e-17
-1.011394612e-16
-1.261033984e-16
-1.508026501e-16
-1.752120834e-16
-1.992905198e-16
-2.22995456e-16
-2.462851304e-16
-2.691189891e-16
-2.914589016e-16
-3.132691623e-16
-3.345161406e-16
-3.551682025e-16
-3.751959693e-16
-3.945724878e-16
-4.132731563e-16
-4.312756087e-16
-4.485595177e-16
-4.651068253e-16
-4.809016445e-16
-4.959301835e-16
-5.101806381e-16
-5.23643137e-16
-5.363094707e-16
-5.481730554e-16
-5.592286974e-16
-5.694724897e-16
-5.789015624e-16
-5.875141031e-16
-5.953090834e-16
-6.022861081e-16
-6.084455228e-16
-6.13788014e-16
-6.183148918e-16
-6.220278327e-16
-6.249288289e-16
-6.27019544e-16
-6.282975569e-16
-2.313535941e-07
-1.038811096e-07
-1.531467461e-07
-1.655627424e-07
-4.413568753e-07
-7.936801194e-07
-1.182535003e-06
-1.769422251e-06
-6.813403053e-08
-4.427691284e-17
-9.27503815e-17
-1.404984864e-16
-1.859443794e-16
-2.305682003e-16
-2.74667425e-16
-3.182334382e-16
-3.611995207e-16
-4.034897346e-16
-4.450295871e-16
-4.857481881e-16
-5.255780093e-16
-5.64455049e-16
-6.02319414e-16
-6.391152682e-16
-6.74790752e-16
-7.09298104e-16
-7.425935388e-16
-7.746372734e-16
-8.053936371e-16
-8.348306456e-16
-8.629202676e-16
-8.89638044e-16
-9.149632773e-16
-9.388783584e-16
-9.613688528e-16
-9.824231374e-16
-1.002031976e-15
-1.020188467e-15
-1.036887612e-15
-1.052126136e-15
-1.065902228e-15
-1.078215384e-15
-1.089066185e-15
-1.098456321e-15
-1.106388699e-15
-1.112868056e-15
-1.117902869e-15
-1.121510935e-15
-1.123738584e-15
-4.960517395e-16
-1.800682123e-07
4.677890182e-08
-1.66815676e-07
-4.106361686e-07
-2.874923662e-07
-1.514389858e-07
1.23975498e-07
-1.857750376e-07
-1.97207421e-09
-3.626116047e-17
-7.726397759e-17
-1.185295084e-16
-1.58025907e-16
-1.969110306e-16
-2.353720741e-16
-2.733802159e-16
-3.108728469e-16
-3.477833949e-16
-3.840465572e-16
-4.195999592e-16
-4.543842268e-16
-4.883432823e-16
-5.214247167e-16
-5.535796483e-16
-5.847625031e-16
-6.149312106e-16
-6.44047293e-16
-6.720758067e-16
-6.989852789e-16
-7.247477102e-16
-7.493382824e-16
-7.727356121e-16
-7.949212107e-16
-8.158796257e-16
-8.355980541e-16
-8.540661658e-16
-8.712757609e-16
-8.872206672e-16
-9.018964016e-16
-9.15299957e-16
-9.274295675e-16
-9.382845975e-16
-9.478653333e-16
-9.561727594e-16
-9.632084699e-16
-9.689744393e-16
-9.734722999e-16
-9.767000691e-16
-9.786374662e-16
-4.83273559e-16
-9.699749635e-08
-7.603609627e-08
1.485786412e-07
-3.666617767e-07
-5.436191323e-07
-6.296746977e-07
-4.768397987e-07
-4.187655266e-07
-2.32431298e-08
-3.569147447e-17
-7.587737703e-17
-1.164681386e-16
-1.55382111e-16
-1.937191704e-16
-2.316447638e-16
-2.691250911e-16
-3.060973489e-16
-3.424957497e-16
-3.782560878e-16
-4.133170516e-16
-4.476201203e-16
-4.811099306e-16
-5.137345759e-16
-5.454458695e-16
-5.76198942e-16
-6.059522752e-16
-6.346679336e-16
-6.623114554e-16
-6.888518013e-16
-7.142612935e-16
-7.385155581e-16
-7.615934659e-16
-7.834768164e-16
-8.041504077e-16
-8.236015892e-16
-8.41820153e-16
-8.587980482e-16
-8.745291207e-16
-8.89008872e-16
-9.022343379e-16
-9.142037239e-16
-9.249162076e-16
-9.343718419e-16
-9.425711618e-16
-9.495150456e-16
-9.552041852e-16
-9.596380862e-16
-9.628134142e-16
-9.647210146e-16
-4.821527081e-16
4.728743408e-08
-5.165799909e-07
1.385788547e-07
-6.546031641e-08
-2.897719841e-07
-3.957899252e-07
-4.188443737e-07
-2.39529509e-07
-1.136889552e-07
-3.56628117e-17
-7.578740253e-17
-1.163221861e-16
-1.551920782e-16
-1.934901176e-16
-2.313777369e-16
-2.688196881e-16
-3.057535e-16
-3.421134464e-16
-3.778356717e-16
-4.128588482e-16
-4.471247422e-16
-4.805780366e-16
-5.131668461e-16
-5.44842937e-16
-5.755615092e-16
-6.052811913e-16
-6.339640961e-16
-6.615757621e-16
-6.880852397e-16
-7.134649545e-16
-7.376905507e-16
-7.607409726e-16
-7.825981271e-16
-8.032467936e-16
-8.226743803e-16
-8.408706445e-16
-8.578275622e-16
-8.735389834e-16
-8.880003939e-16
-9.012087489e-16
-9.131621439e-16
-9.238597169e-16
-9.333012824e-16
-9.414870954e-16
-9.484175896e-16
-9.540928767e-16
-9.585123513e-16
-9.616737168e-16
-9.635734227e-16
-4.82136462e-16
2.70050206e-07
-6.455944319e-07
-3.434626692e-07
-1.115234313e-07
-1.663525467e-07
-1.52532497e-07
-2.411107753e-07
2.592256947e-08
-1.258317828e-07
-3.567189462e-17
-7.581077909e-17
-1.163540802e-16
-1.552310198e-16
-1.935374223e-16
-2.314341478e-16
-2.688841839e-16
-3.058253077e-16
-3.421917202e-16
-3.779197648e-16
-4.129482644e-16
-4.472189489e-16
-4.806766626e-16
-5.132694982e-16
-5.449491216e-16
-5.756707512e-16
-6.053929853e-16
-6.340779717e-16
-6.616913406e-16
-6.882020946e-16
-7.135827248e-16
-7.378088911e-16
-7.608596003e-16
-7.827167866e-16
-8.033652538e-16
-8.227923676e-16
-8.409879589e-16
-8.579439399e-16
-8.736541541e-16
-8.881140166e-16
-9.013204781e-16
-9.132715919e-16
-9.239663062e-16
-9.334044114e-16
-9.41585905e-16
-9.485111079e-16
-9.541800126e-16
-9.585922607e-16
-9.617466633e-16
-9.636416706e-16
-4.822287814e-16
4.259366662e-07
-2.103834626e-07
-5.646206189e-07
-3.373360181e-07
-2.070089334e-07
-4.669813682e-08
-8.570507363e-08
7.960201803e-08
-1.684949561e-08
-3.568546792e-17
-7.58384374e-17
-1.163998545e-16
-1.552896411e-16
-1.936081631e-16
-2.315183748e-16
-2.68981214e-16
-3.059341021e-16
-3.42311448e-16
-3.780496588e-16
-4.130876698e-16
-4.473672943e-16
-4.808333822e-16
-5.13434131e-16
-5.451211162e-16
-5.758494834e-16
-6.055779007e-16
-6.342684721e-16
-6.618868717e-16
-6.884021739e-16
-7.137868124e-16
-7.380165875e-16
-7.610704516e-16
-7.829303725e-16
-8.035811921e-16
-8.230102541e-16
-8.412073998e-16
-8.581645082e-16
-8.738753504e-16
-8.883354585e-16
-9.015415905e-16
-9.134918072e-16
-9.241850225e-16
-9.33620922e-16
-9.417994498e-16
-9.487208793e-16
-9.543853338e-16
-9.58792692e-16
-9.619425016e-16
-9.638341775e-16
-4.823347434e-16
2.561107307e-07
1.629107401e-07
-3.141337858e-07
-4.103911393e-07
-2.43861484e-07
-7.10469564e-08
3.778173297e-08
-5.005498295e-08
1.048375602e-07
-3.570197658e-17
-7.586136089e-17
-1.164421431e-16
-1.553470023e-16
-1.936777775e-16
-2.316015798e-16
-2.690783621e-16
-3.060438729e-16
-3.424328071e-16
-3.781817355e-16
-4.132298027e-16
-4.475189081e-16
-4.809938635e-16
-5.13602923e-16
-5.452976888e-16
-5.760333209e-16
-6.05768342e-16
-6.344649969e-16
-6.620889374e-16
-6.886092706e-16
-7.139984655e-16
-7.382323145e-16
-7.612898325e-16
-7.831529712e-16
-8.038065682e-16
-8.232380265e-16
-8.414370876e-16
-8.583956941e-16
-8.741075726e-16
-8.88568214e-16
-9.017743372e-16
-9.137240387e-16
-9.244161256e-16
-9.338502472e-16
-9.420264307e-16
-9.489448986e-16
-9.546059747e-16
-9.590097934e-16
-9.621563133e-16
-9.640454314e-16
-4.824441142e-16
-5.238495758e-08
1.842535624e-07
3.830655035e-08
-2.293543904e-07
-1.94901215e-07
-3.368261073e-08
9.5886251e-08
-9.827063358e-08
1.228563011e-07
-3.571826516e-17
-7.588379798e-17
-1.1648005e-16
-1.55401375e-16
-1.937437736e-16
-2.316802284e-16
-2.691713682e-16
-3.061502331e-16
-3.425513367e-16
-3.783113178e-16
-4.133695596e-16
-4.476681923e-16
-4.811521514e-16
-5.137696135e-16
-5.454722204e-16
-5.76215142e-16
-6.059569545e-16
-6.346598681e-16
-6.622895227e-16
-6.888150737e-16
-7.142090166e-16
-7.38447182e-16
-7.615085697e-16
-7.83375181e-16
-8.040317778e-16
-8.234658218e-16
-8.416670474e-16
-8.586273299e-16
-8.743404395e-16
-8.888017898e-16
-9.020081464e-16
-9.139575194e-16
-9.246488197e-16
-9.340815877e-16
-9.422559181e-16
-9.491720991e-16
-9.548305967e-16
-9.592316947e-16
-9.62375724e-16
-9.642627594e-16
-4.825546178e-16
-3.142827472e-07
-5.119402429e-08
2.432622376e-07
-6.736191273e-09
-7.030924916e-08
1.112949456e-07
1.228709936e-07
4.870951839e-08
6.638209787e-08
-3.573090458e-17
-7.590952439e-17
-1.165155866e-16
-1.55454656e-16
-1.93808185e-16
-2.317551239e-16
-2.692595173e-16
-3.062518078e-16
-3.426655955e-16
-3.784370166e-16
-4.135055982e-16
-4.478138098e-16
-4.813067252e-16
-5.13932557e-16
-5.456430064e-16
-5.763932603e-16
-6.061418885e-16
-6.348511361e-16
-6.624865941e-16
-6.890174836e-16
-7.14416343e-16
-7.386589825e-16
-7.617243803e-16
-7.835945819e-16
-8.042543596e-16
-8.236911648e-16
-8.418946796e-16
-8.588568358e-16
-8.745713488e-16
-8.890336251e-16
-9.022404217e-16
-9.141897596e-16
-9.248804942e-16
-9.343122618e-16
-9.424851721e-16
-9.493995744e-16
-9.550560142e-16
-9.594550428e-16
-9.62597045e-16
-9.644823842e-16
-4.826647988e-16
-3.195671331e-07
-2.654139506e-07
2.207014379e-07
1.22832277e-07
6.047609367e-08
2.222235421e-07
2.02505854e-07
1.922248765e-07
5.061068315e-08
-3.573990599e-17
-7.593608117e-17
-1.165478031e-16
-1.555063838e-16
-1.938728102e-16
-2.318287226e-16
-2.693440449e-16
-3.063486082e-16
-3.427748105e-16
-3.785578131e-16
-4.136368584e-16
-4.479546248e-16
-4.8145641e-16
-5.14090542e-16
-5.458087934e-16
-5.765663326e-16
-6.063218013e-16
-6.350373505e-16
-6.62678652e-16
-6.892149127e-16
-7.14618746e-16
-7.38865908e-16
-7.619354636e-16
-7.838093759e-16
-8.044724637e-16
-8.239120972e-16
-8.421180989e-16
-8.590822189e-16
-8.74798283e-16
-8.892616224e-16
-9.024690696e-16
-9.144185485e-16
-9.251090237e-16
-9.345401004e-16
-9.42711927e-16
-9.496249744e-16
-9.552798507e-16
-9.596771716e-16
-9.628175236e-16
-9.64701311e-16
-4.827732388e-16
-6.981427347e-08
-2.640954046e-07
1.05536275e-07
1.981944968e-07
5.585638186e-08
2.793183053e-07
2.585284073e-07
1.519867115e-07
4.975521431e-08
-3.57482822e-17
-7.596027828e-17
-1.165751932e-16
-1.555513011e-16
-1.939351262e-16
-2.319015863e-16
-2.694260024e-16
-3.064412195e-16
-3.428787581e-16
-3.786728201e-16
-4.137622272e-16
-4.480895139e-16
-4.816000346e-16
-5.142423072e-16
-5.459681928e-16
-5.767329403e-16
-6.064951551e-16
-6.352169766e-16
-6.628641411e-16
-6.894057861e-16
-7.148145275e-16
-7.390662613e-16
-7.621399393e-16
-7.840175886e-16
-8.046840415e-16
-8.241266613e-16
-8.423351429e-16
-8.593013902e-16
-8.75019109e-16
-8.894837006e-16
-9.02691921e-16
-9.14641784e-16
-9.253321756e-16
-9.347628539e-16
-9.429339122e-16
-9.498458937e-16
-9.554994878e-16
-9.598954124e-16
-9.630343417e-16
-9.649167297e-16
-4.828785532e-16
1.800677757e-07
-9.507862115e-08
6.550335852e-08
1.597953941e-07
1.386643301e-07
2.118904019e-07
1.531532257e-07
1.129421609e-07
-8.187418376e-08
-3.575647842e-17
-7.598487218e-17
-1.16603803e-16
-1.555870587e-16
-1.93990408e-16
-2.319710496e-16
-2.695049026e-16
-3.06529611e-16
-3.429772602e-16
-3.787815128e-16
-4.138807567e-16
-4.482172596e-16
-4.817363645e-16
-5.143866016e-16
-5.461199211e-16
-5.768916466e-16
-6.066604805e-16
-6.353884762e-16
-6.630413378e-16
-6.89588272e-16
-7.150018863e-16
-7.392580927e-16
-7.623358989e-16
-7.842173277e-16
-8.048871096e-16
-8.243326883e-16
-8.425437747e-16
-8.595121755e-16
-8.75231632e-16
-8.896975505e-16
-9.029067086e-16
-9.148570941e-16
-9.255476592e-16
-9.349780708e-16
-9.431485865e-16
-9.500597829e-16
-9.557123571e-16
-9.601071245e-16
-9.63244742e-16
-9.651258986e-16
-4.829793009e-16
2.436611225e-07
1.071245307e-07
9.897680169e-08
1.896767882e-07
2.524165536e-07
1.14864138e-08
1.4597532e-08
3.395329639e-07
-3.349675361e-07
-3.576177968e-17
-7.600993845e-17
-1.166424497e-16
-1.556201008e-16
-1.940382004e-16
-2.3203447e-16
-2.695788809e-16
-3.06612889e-16
-3.430697475e-16
-3.788833065e-16
-4.139916329e-16
-4.483368714e-16
-4.818642099e-16
-5.145221081e-16
-5.462626202e-16
-5.770410762e-16
-6.068162243e-16
-6.355501641e-16
-6.632085769e-16
-6.897606523e-16
-7.151789863e-16
-7.394395533e-16
-7.625213541e-16
-7.844064085e-16
-8.050795382e-16
-8.245280675e-16
-8.427416973e-16
-8.597122981e-16
-8.754335633e-16
-8.899008781e-16
-9.031110421e-16
-9.150620879e-16
-9.25752901e-16
-9.351832975e-16
-9.433534683e-16
-9.502640134e-16
-9.559157611e-16
-9.603095098e-16
-9.634460164e-16
-9.653259067e-16
-4.83074127e-16
1.299463749e-07
1.696690125e-07
1.854057101e-07
2.089975445e-07
2.045709564e-07
9.044742072e-08
-2.418841547e-07
7.157195875e-07
-4.683025205e-07
-3.576628294e-17
-7.602606982e-17
-1.166854383e-16
-1.55655384e-16
-1.940808767e-16
-2.320906702e-16
-2.696461644e-16
-3.066894532e-16
-3.43155099e-16
-3.789772508e-16
-4.140939339e-16
-4.484472222e-16
-4.819822936e-16
-5.146475309e-16
-5.46394848e-16
-5.771797185e-16
-6.069608747e-16
-6.357004189e-16
-6.633640905e-16
-6.89921013e-16
-7.153439095e-16
-7.396086316e-16
-7.626942815e-16
-7.845828536e-16
-8.05259158e-16
-8.247105565e-16
-8.429267311e-16
-8.598994711e-16
-8.75622555e-16
-8.900913176e-16
-9.033025283e-16
-9.152543131e-16
-9.259455291e-16
-9.353759744e-16
-9.435459241e-16
-9.504559902e-16
-9.561070407e-16
-9.604998972e-16
-9.636353827e-16
-9.655140895e-16
-4.831616676e-16
1.271100875e-09
1.119464537e-07
1.845356539e-07
9.06962872e-08
1.913965254e-07
2.425326643e-07
-5.067907679e-07
7.308497319e-07
-3.894200514e-07
-3.577816356e-17
-7.603565126e-17
-1.167231523e-16
-1.556948317e-16
-1.941228182e-16
-2.321411602e-16
-2.697062578e-16
-3.067582742e-16
-3.432321269e-16
-3.790622708e-16
-4.14186671e-16
-4.485473277e-16
-4.820894542e-16
-5.14761469e-16
-5.465152151e-16
-5.773060468e-16
-6.070927961e-16
-6.358375942e-16
-6.635061208e-16
-6.900676336e-16
-7.154947325e-16
-7.397633661e-16
-7.628526423e-16
-7.847445201e-16
-8.054238631e-16
-8.248779626e-16
-8.430965404e-16
-8.600713855e-16
-8.757962297e-16
-8.902664324e-16
-9.034787508e-16
-9.15431269e-16
-9.261229591e-16
-9.35553556e-16
-9.437233795e-16
-9.506331067e-16
-9.562835443e-16
-9.606756025e-16
-9.638101576e-16
-9.656877381e-16
-4.832406157e-16
-4.030184785e-08
7.44653607e-08
1.313957102e-07
-1.387191078e-08
5.977864255e-08
1.384980668e-07
-4.432408711e-07
6.270404032e-07
-8.449582986e-08
-3.579587111e-17
-7.604308252e-17
-1.167441443e-16
-1.55731479e-16
-1.941637786e-16
-2.321870688e-16
-2.697594565e-16
-3.068189257e-16
-3.433000651e-16
-3.791373541e-16
-4.142687623e-16
-4.486361294e-16
-4.821846073e-16
-5.148627156e-16
-5.466222679e-16
-5.77418597e-16
-6.072104436e-16
-6.359599711e-16
-6.636329621e-16
-6.901986004e-16
-7.156295901e-16
-7.399018236e-16
-7.629944204e-16
-7.848893544e-16
-8.055715025e-16
-8.250281441e-16
-8.432489826e-16
-8.602258094e-16
-8.759522972e-16
-8.904238765e-16
-9.036372812e-16
-9.155905604e-16
-9.262827131e-16
-9.357135416e-16
-9.438833227e-16
-9.507927284e-16
-9.564426837e-16
-9.608340357e-16
-9.639676645e-16
-9.658442379e-16
-4.833096926e-16
-1.874138518e-08
1.097208554e-07
1.03327025e-07
-2.303787617e-08
-4.587061155e-08
-8.539416287e-08
-2.695586769e-07
4.052633548e-08
2.750111896e-07
-3.581324689e-17
-7.606074709e-17
-1.167511705e-16
-1.557576221e-16
-1.941984573e-16
-2.322265074e-16
-2.698049298e-16
-3.068707714e-16
-3.433582019e-16
-3.792017599e-16
-4.143392728e-16
-4.487125003e-16
-4.822666009e-16
-5.149500452e-16
-5.46714731e-16
-5.77515874e-16
-6.073122078e-16
-6.360659856e-16
-6.63742918e-16
-6.903122492e-16
-7.157466407e-16
-7.400220604e-16
-7.631176483e-16
-7.85015365e-16
-8.057000099e-16
-8.25158954e-16
-8.433818468e-16
-8.60360485e-16
-8.760885371e-16
-8.905613732e-16
-9.037757991e-16
-9.157298349e-16
-9.264224623e-16
-9.358535173e-16
-9.440232773e-16
-9.509324793e-16
-9.565819629e-16
-9.609726826e-16
-9.641054714e-16
-9.659810578e-16
-4.833676964e-16
-2.247844933e-08
1.379207521e-07
1.050121412e-07
8.116677593e-08
9.710764924e-08
-9.929558791e-08
-4.142309117e-08
-5.031397765e-07
5.396502109e-07
-3.581819734e-17
-7.608895618e-17
-1.167598413e-16
-1.557765541e-16
-1.942247416e-16
-2.322575369e-16
-2.698412573e-16
-3.069127274e-16
-3.434057345e-16
-3.792545836e-16
-4.143972881e-16
-4.487754845e-16
-4.82334319e-16
-5.150222555e-16
-5.467912325e-16
-5.775964779e-16
-6.073966381e-16
-6.361540052e-16
-6.638342879e-16
-6.904067635e-16
-7.158441594e-16
-7.401223572e-16
-7.63220457e-16
-7.851205685e-16
-8.058074307e-16
-8.252683808e-16
-8.434930842e-16
-8.604732942e-16
-8.762027561e-16
-8.906767374e-16
-9.038920806e-16
-9.158467805e-16
-9.265398979e-16
-9.359711754e-16
-9.441409503e-16
-9.510499039e-16
-9.566989979e-16
-9.610891283e-16
-9.642211639e-16
-9.660957949e-16
-4.834135278e-16
-6.896053117e-08
9.578625693e-08
4.251071879e-08
1.488419833e-07
2.861412586e-07
-1.333107252e-08
1.603034266e-07
-6.086292009e-07
6.345494636e-07
-3.580979907e-17
-7.610719655e-17
-1.167726781e-16
-1.557923164e-16
-1.942438208e-16
-2.322797639e-16
-2.698676978e-16
-3.069439748e-16
-3.43441739e-16
-3.792950589e-16
-4.144419273e-16
-4.488240951e-16
-4.82386726e-16
-5.150782406e-16
-5.468506369e-16
-5.776590925e-16
-6.07462318e-16
-6.362225503e-16
-6.639055717e-16
-6.904806317e-16
-7.159203998e-16
-7.402008723e-16
-7.633011216e-16
-7.852031888e-16
-8.058918949e-16
-8.253545148e-16
-8.435807453e-16
-8.605623183e-16
-8.762929409e-16
-8.9076792e-16
-9.039840565e-16
-9.15939378e-16
-9.266328896e-16
-9.360643199e-16
-9.442341136e-16
-9.511429024e-16
-9.567916254e-16
-9.61181214e-16
-9.643125171e-16
-9.661862689e-16
-4.834461672e-16
-9.45199066e-08
5.189558259e-08
-9.912073112e-08
7.072049579e-08
4.865530589e-07
1.526345145e-07
1.802891614e-07
-6.817828485e-07
5.582388012e-07
-3.580398943e-17
-7.610947289e-17
-1.167836349e-16
-1.558046574e-16
-1.942570982e-16
-2.322942438e-16
-2.698844865e-16
-3.069641635e-16
-3.434655696e-16
-3.793223162e-16
-4.144723352e-16
-4.488574135e-16
-4.824227974e-16
-5.151169549e-16
-5.468917553e-16
-5.777025212e-16
-6.075079753e-16
-6.362702951e-16
-6.639553071e-16
-6.905322823e-16
-7.159738903e-16
-7.402561036e-16
-7.633579949e-16
-7.852615736e-16
-8.059516886e-16
-8.254156298e-16
-8.436430444e-16
-8.606257107e-16
-8.763572708e-16
-8.908330203e-16
-9.040497987e-16
-9.160055902e-16
-9.266994079e-16
-9.361310197e-16
-9.443007772e-16
-9.512093847e-16
-9.56857763e-16
-9.612468649e-16
-9.643775256e-16
-9.662504645e-16
-4.834646887e-16
-7.100647051e-08
1.045112719e-07
-2.031158653e-07
-2.077647007e-07
5.108513286e-07
5.166608593e-07
1.184038277e-07
-6.151790008e-07
3.920381417e-07
-3.580651571e-17
-7.610427731e-17
-1.167883516e-16
-1.558105272e-16
-1.942644019e-16
-2.323019656e-16
-2.69892443e-16
-3.06973611e-16
-3.434769722e-16
-3.7933586e-16
-4.144878087e-16
-4.488746461e-16
-4.824416332e-16
-5.151373328e-16
-5.469135685e-16
-5.777256933e-16
-6.075324183e-16
-6.362959919e-16
-6.639822696e-16
-6.905604258e-16
-7.160032153e-16
-7.402865535e-16
-7.633895244e-16
-7.85294166e-16
-8.059852634e-16
-8.25450117e-16
-8.436783526e-16
-8.606617785e-16
-8.763939818e-16
-8.908703427e-16
-9.040875938e-16
-9.160437212e-16
-9.26737738e-16
-9.361694492e-16
-9.443391504e-16
-9.512475991e-16
-9.568956371e-16
-9.612842516e-16
-9.644143214e-16
-9.662865629e-16
-4.83468282e-16
-4.806360522e-08
2.325203093e-07
-1.243604472e-07
-4.837203445e-07
1.467529042e-07
7.528016089e-07
1.23163333e-07
-5.012251291e-07
1.983514626e-07
-3.581218307e-17
-7.610059038e-17
-1.167878243e-16
-1.558078666e-16
-1.942642026e-16
-2.323025858e-16
-2.698919655e-16
-3.069725872e-16
-3.434759688e-16
-3.793352579e-16
-4.144878308e-16
-4.488751255e-16
-4.824424672e-16
-5.151384737e-16
-5.469151012e-16
-5.777275527e-16
-6.075346272e-16
-6.362985764e-16
-6.639852258e-16
-6.905638669e-16
-7.160071339e-16
-7.402910051e-16
-7.633944968e-16
-7.852996364e-16
-8.059912184e-16
-8.254565511e-16
-8.436852769e-16
-8.606691276e-16
-8.764017133e-16
-8.908783851e-16
-9.040958768e-16
-9.160521996e-16
-9.26746331e-16
-9.361780331e-16
-9.443476409e-16
-9.51255886e-16
-9.569036352e-16
-9.612918332e-16
-9.644213769e-16
-9.662929236e-16
-4.83456319e-16
-8.43008254e-08
3.01039801e-07
9.334762221e-08
-4.528580118e-07
-2.937412102e-07
6.150510923e-07
1.092816799e-07
-2.921164437e-07
5.827848106e-08
-3.581457252e-17
-7.609852146e-17
-1.167845508e-16
-1.557974741e-16
-1.94255111e-16
-2.322948494e-16
-2.698826872e-16
-3.069611162e-16
-3.434624871e-16
-3.79320381e-16
-4.144719156e-16
-4.488582857e-16
-4.824247112e-16
-5.151198148e-16
-5.46895577e-16
-5.777072953e-16
-6.07513706e-16
-6.362771097e-16
-6.639633264e-16
-6.905416353e-16
-7.159846725e-16
-7.402683533e-16
-7.633717409e-16
-7.852768602e-16
-8.059684351e-16
-8.254338029e-16
-8.436625649e-16
-8.606464615e-16
-8.763791226e-16
-8.908558871e-16
-9.040734233e-16
-9.160297639e-16
-9.267238562e-16
-9.361554924e-16
-9.443249628e-16
-9.512329546e-16
-9.568803951e-16
-9.612682318e-16
-9.643972853e-16
-9.662682908e-16
-4.834282045e-16
-1.706898223e-07
2.236528841e-07
2.210711107e-07
-1.996635488e-07
-4.535022316e-07
2.974075762e-07
-4.883000631e-09
-1.557835775e-07
9.23273146e-09
-3.581268531e-17
-7.609453415e-17
-1.16779298e-16
-1.557819057e-16
-1.942369741e-16
-2.322769713e-16
-2.698632298e-16
-3.06938497e-16
-3.434362732e-16
-3.792908898e-16
-4.144396756e-16
-4.488236626e-16
-4.823877581e-16
-5.150806792e-16
-5.468544278e-16
-5.77664236e-16
-6.074689766e-16
-6.362308869e-16
-6.639157485e-16
-6.904928923e-16
-7.159349221e-16
-7.402177483e-16
-7.6332041e-16
-7.852249002e-16
-8.05915956e-16
-8.253808713e-16
-8.436092619e-16
-8.605928559e-16
-8.763252653e-16
-8.908017689e-16
-9.04019155e-16
-9.159753209e-16
-9.266692481e-16
-9.36100715e-16
-9.442699536e-16
-9.511777093e-16
-9.568248681e-16
-9.612123403e-16
-9.643410106e-16
-9.662115408e-16
-4.833835626e-16
-2.371772213e-07
8.113312001e-08
1.684143174e-07
4.132801135e-10
-3.440463313e-07
7.29460999e-08
-9.467560037e-08
-1.061903221e-07
6.659568504e-08
-3.580835454e-17
-7.608628646e-17
-1.16770445e-16
-1.557643624e-16
-1.942114641e-16
-2.32248288e-16
-2.698322128e-16
-3.069035329e-16
-3.433966432e-16
-3.792465166e-16
-4.143908743e-16
-4.487708052e-16
-4.82331191e-16
-5.150206499e-16
-5.467911214e-16
-5.775979641e-16
-6.07399918e-16
-6.361592747e-16
-6.638419229e-16
-6.904170333e-16
-7.158572772e-16
-7.401385452e-16
-7.632398029e-16
-7.851430771e-16
-8.058330373e-16
-8.252970382e-16
-8.435246045e-16
-8.60507504e-16
-8.762393273e-16
-8.907153583e-16
-9.039322887e-16
-9.158881119e-16
-9.265817342e-16
-9.360128808e-16
-9.441818605e-16
-9.51089368e-16
-9.567362116e-16
-9.611233924e-16
-9.642516877e-16
-9.661218707e-16
-4.8332212e-16
-2.377421857e-07
-9.974993984e-10
3.825272617e-08
3.035029065e-08
-1.591977216e-07
1.168271267e-08
-4.764312174e-08
-1.813396808e-07
2.175677326e-07
-3.580397346e-17
-7.607377774e-17
-1.167536795e-16
-1.557458269e-16
-1.941812957e-16
-2.322100222e-16
-2.697892977e-16
-3.06855459e-16
-3.433427986e-16
-3.791867152e-16
-4.143251563e-16
-4.486995261e-16
-4.822547333e-16
-5.149393641e-16
-5.467053928e-16
-5.77508045e-16
-6.073061736e-16
-6.360620361e-16
-6.637414534e-16
-6.903137145e-16
-7.157513528e-16
-7.400302853e-16
-7.631294696e-16
-7.850309061e-16
-8.057192448e-16
-8.251817977e-16
-8.434081082e-16
-8.603899352e-16
-8.761208166e-16
-8.905960561e-16
-9.038123455e-16
-9.157675937e-16
-9.264607504e-16
-9.358915269e-16
-9.440601914e-16
-9.509673665e-16
-9.566139389e-16
-9.61000813e-16
-9.641288862e-16
-9.659987412e-16
-4.832437593e-16
-1.910157639e-07
1.159442981e-08
-3.517732609e-08
-2.07702869e-08
-3.402880879e-08
4.427735829e-08
1.322248209e-07
-4.139450749e-07
3.911455729e-07
-3.580064329e-17
-7.606141049e-17
-1.16725714e-16
-1.557226058e-16
-1.941468095e-16
-2.321636904e-16
-2.697352175e-16
-3.067942767e-16
-3.432743868e-16
-3.791110034e-16
-4.142422105e-16
-4.486095864e-16
-4.821582326e-16
-5.14836715e-16
-5.465969834e-16
-5.773943456e-16
-6.071875339e-16
-6.359389029e-16
-6.636141683e-16
-6.901826361e-16
-7.15616871e-16
-7.398927573e-16
-7.629891837e-16
-7.848881702e-16
-8.055743147e-16
-8.25034932e-16
-8.432595503e-16
-8.602398704e-16
-8.75969499e-16
-8.904436523e-16
-9.036590365e-16
-9.156135333e-16
-9.263061035e-16
-9.357363369e-16
-9.439045998e-16
-9.508114328e-16
-9.564577561e-16
-9.608443981e-16
-9.639722169e-16
-9.658419039e-16
-4.831484663e-16
-1.432968172e-07
5.644822959e-08
-2.901034997e-08
-3.368857332e-08
1.640600157e-08
1.045623847e-07
3.628477388e-07
-5.968056651e-07
5.437040966e-07
-3.57951946e-17
-7.605124853e-17
-1.166891403e-16
-1.556891468e-16
-1.941044618e-16
-2.321088873e-16
-2.696701728e-16
-3.067202046e-16
-3.431914431e-16
-3.790192449e-16
-4.141418465e-16
-4.485009002e-16
-4.820416259e-16
-5.147126849e-16
-5.464659741e-16
-5.772568272e-16
-6.070440498e-16
-6.357898532e-16
-6.634600537e-16
-6.900238879e-16
-7.154539072e-16
-7.397259539e-16
-7.628189547e-16
-7.847148425e-16
-8.053982332e-16
-8.248564075e-16
-8.430788662e-16
-8.600573572e-16
-8.757853457e-16
-8.902581142e-16
-9.034723729e-16
-9.154259406e-16
-9.261177357e-16
-9.355473853e-16
-9.437151731e-16
-9.506216416e-16
-9.562676796e-16
-9.606541287e-16
-9.637818068e-16
-9.656514098e-16
-4.830364149e-16
-1.137893547e-07
7.564894702e-08
4.443384478e-09
1.439769895e-08
3.982341577e-08
1.740297938e-07
4.501784463e-07
-7.034189522e-07
5.827086421e-07
-3.578382869e-17
-7.603995317e-17
-1.166531808e-16
-1.556461478e-16
-1.940520714e-16
-2.320446243e-16
-2.695941097e-16
-3.066333116e-16
-3.430940733e-16
-3.789114944e-16
-4.140239799e-16
-4.483734236e-16
-4.819049959e-16
-5.145673645e-16
-5.46312487e-16
-5.770957224e-16
-6.068758409e-16
-6.356151096e-16
-6.632792805e-16
-6.898376019e-16
-7.152625973e-16
-7.395300806e-16
-7.626189661e-16
-7.845111635e-16
-8.051912418e-16
-8.246464792e-16
-8.428663677e-16
-8.598425502e-16
-8.755686269e-16
-8.90039745e-16
-9.032526111e-16
-9.152050423e-16
-9.25895951e-16
-9.353249082e-16
-9.434921411e-16
-9.503982294e-16
-9.560439856e-16
-9.60430297e-16
-9.635579078e-16
-9.654274684e-16
-4.829078509e-16
-9.169577412e-08
6.522917687e-08
2.38290055e-08
6.481362201e-08
8.443000344e-08
2.765502372e-07
1.62270778e-07
-6.012628818e-07
4.616606301e-07
-3.576749243e-17
-7.601727886e-17
-1.16619171e-16
-1.555948745e-16
-1.93988896e-16
-2.31970084e-16
-2.695069358e-16
-3.065337659e-16
-3.429824258e-16
-3.787879293e-16
-4.138888981e-16
-4.482273524e-16
-4.817484888e-16
-5.144009791e-16
-5.461367867e-16
-5.769112922e-16
-6.066832779e-16
-6.354150032e-16
-6.63072269e-16
-6.896242089e-16
-7.150433856e-16
-7.393055691e-16
-7.623896872e-16
-7.842775525e-16
-8.049537724e-16
-8.244055762e-16
-8.426224328e-16
-8.595959864e-16
-8.753198089e-16
-8.897890339e-16
-9.030002658e-16
-9.149514634e-16
-9.256412739e-16
-9.350694567e-16
-9.432360796e-16
-9.501417837e-16
-9.557872814e-16
-9.601734334e-16
-9.633010151e-16
-9.651706958e-16
-4.827631681e-16
-6.10407823e-08
5.444731415e-08
2.508106973e-08
4.55517564e-08
1.554905164e-07
5.543654749e-07
-2.856898018e-07
-4.025082919e-07
1.578265818e-07
-3.575407219e-17
-7.598464523e-17
-1.16586927e-16
-1.555380538e-16
-1.939161224e-16
-2.318849013e-16
-2.694084701e-16
-3.064215906e-16
-3.428565981e-16
-3.786487745e-16
-4.137368821e-16
-4.480629931e-16
-4.81572456e-16
-5.142138961e-16
-5.459392763e-16
-5.767039733e-16
-6.064668066e-16
-6.351900744e-16
-6.628394583e-16
-6.893842055e-16
-7.147967905e-16
-7.390529956e-16
-7.621316546e-16
-7.840146272e-16
-8.046864881e-16
-8.241343946e-16
-8.423478279e-16
-8.593184077e-16
-8.75039645e-16
-8.895066934e-16
-9.027161363e-16
-9.146658224e-16
-9.253544946e-16
-9.347817705e-16
-9.429477714e-16
-9.49853e-16
-9.554982367e-16
-9.598842926e-16
-9.630119573e-16
-9.6488179e-16
-4.826028947e-16
-1.778511844e-08
7.40751842e-08
3.758166441e-08
-6.252134369e-08
9.69923035e-08
8.734163784e-07
-5.071238459e-07
1.763541713e-07
-1.277059208e-07
-3.574447395e-17
-7.594243682e-17
-1.165510377e-16
-1.554789278e-16
-1.938376731e-16
-2.317908995e-16
-2.692993997e-16
-3.06297181e-16
-3.42717027e-16
-3.784943965e-16
-4.135682607e-16
-4.478808158e-16
-4.813773831e-16
-5.140066212e-16
-5.457204999e-16
-5.764743562e-16
-6.062270469e-16
-6.349409205e-16
-6.625816098e-16
-6.891183508e-16
-7.145235876e-16
-7.387731226e-16
-7.618457231e-16
-7.837232552e-16
-8.043902365e-16
-8.238337943e-16
-8.420434023e-16
-8.590106678e-16
-8.747290114e-16
-8.891936596e-16
-9.024011113e-16
-9.143491676e-16
-9.250365677e-16
-9.344628507e-16
-9.426281665e-16
-9.495329605e-16
-9.551779523e-16
-9.595639684e-16
-9.626917055e-16
-9.645618142e-16
-4.82427583e-16
2.422448974e-08
1.239714425e-07
9.319497005e-08
-1.802952274e-07
-1.200572526e-07
7.916642343e-07
-5.375618867e-07
4.556072212e-07
-2.121625185e-07
-3.573901477e-17
-7.589351201e-17
-1.164988786e-16
-1.554119987e-16
-1.93753287e-16
-2.316890505e-16
-2.691803691e-16
-3.06161033e-16
-3.425640653e-16
-3.783252095e-16
-4.133835924e-16
-4.476813456e-16
-4.811638844e-16
-5.137798086e-16
-5.454810865e-16
-5.762231317e-16
-6.059647626e-16
-6.346683057e-16
-6.622995043e-16
-6.888274835e-16
-7.14224697e-16
-7.384668654e-16
-7.615328383e-16
-7.834043674e-16
-8.040659691e-16
-8.235047817e-16
-8.417102366e-16
-8.586738345e-16
-8.743890859e-16
-8.8885109e-16
-9.020563784e-16
-9.140026528e-16
-9.246886826e-16
-9.341139496e-16
-9.422784926e-16
-9.491828182e-16
-9.548275758e-16
-9.592135426e-16
-9.623414744e-16
-9.642118928e-16
-4.822379496e-16
4.509081001e-08
1.716585197e-07
1.95809827e-07
-1.27120634e-07
-1.956591882e-07
4.590846885e-07
-3.791726077e-07
2.981300467e-07
-2.511183897e-07
-3.573348583e-17
-7.585806994e-17
-1.164373618e-16
-1.553363653e-16
-1.936617817e-16
-2.315792503e-16
-2.690516592e-16
-3.060135159e-16
-3.42398254e-16
-3.781418551e-16
-4.1318343e-16
-4.474652662e-16
-4.809325874e-16
-5.13534137e-16
-5.452218378e-16
-5.759511306e-16
-6.056808011e-16
-6.343732006e-16
-6.619940966e-16
-6.885125606e-16
-7.139010681e-16
-7.381353102e-16
-7.611940929e-16
-7.830591267e-16
-8.037149422e-16
-8.231485834e-16
-8.413494871e-16
-8.583091998e-16
-8.740210932e-16
-8.884802595e-16
-9.016831867e-16
-9.136276224e-16
-9.243121591e-16
-9.33736313e-16
-9.419000991e-16
-9.488039137e-16
-9.544484778e-16