/*--------------------------------*- C++ -*----------------------------------*\
  =========                 |
  \\      /  F ield         | OpenFOAM: The Open Source CFD Toolbox
   \\    /   O peration     | Website:  https://openfoam.org
    \\  /    A nd           | Version:  6
     \\/     M anipulation  |
\*---------------------------------------------------------------------------*/
FoamFile
{
    version     2.0;
    format      ascii;
    class       volScalarField;
    location    "0.07";
    object      p_rgh;
}
// * * * * * * * * * * * * * * * * * * * * * * * * * * * * * * * * * * * * * //

dimensions      [1 -1 -2 0 0 0 0];

internalField   nonuniform List<scalar> 
2500
(
0.3847863848
0.186466282
0.1211404315
0.1030282476
0.1183564217
0.1395388352
0.1432252883
0.1503850528
27276.26511
27336.3585
27395.79261
27454.22361
27511.19397
27566.296
27619.18139
27669.56753
27717.24001
27762.05158
27803.9183
27842.81338
27878.75984
27911.82232
27942.09891
27969.71322
27994.80719
28017.53473
28038.05621
28056.53402
28073.1289
28087.99719
28101.28874
28113.14541
28123.70017
28133.0765
28141.38823
28148.73948
28155.22494
28160.93015
28165.93195
28170.29893
28174.0919
28177.36442
28180.16321
28182.52864
28184.49511
28186.09142
28187.34106
28188.26252
28188.86945
28189.1708
0.1886944461
0.09902482926
0.05609191906
0.0655349027
0.1027806993
0.1338566113
0.14106835
0.1443654117
27276.25417
27336.8682
27396.79603
27455.68406
27513.06211
27568.51246
27621.68048
27672.28107
27720.10084
27764.99645
27806.89
27845.76215
27881.64403
27914.60851
27944.76154
27972.23397
27997.17411
28019.74131
28040.10047
28058.41756
28074.85614
28089.57463
28102.72432
28114.44806
28124.87935
28134.1419
28142.3495
28149.60609
28156.00601
28161.6344
28166.56763
28170.8738
28174.61324
28177.83903
28180.59747
28182.9285
28184.86618
28186.43899
28187.67016
28188.57798
28189.17596
28189.47308
0.05853668524
0.040234013
0.02901823408
0.05518161662
0.09739933866
0.1325453413
0.1419968265
0.13906023
27276.25255
27337.912
27398.83962
27458.65443
27516.85789
27573.01125
27626.74705
27677.77555
27725.88601
27770.94368
27812.88349
27851.70168
27887.44621
27920.20684
27950.10556
27977.28787
28001.91492
28024.15696
28044.18786
28062.18075
28078.30468
28092.7221
28105.58716
28117.04449
28127.22863
28136.26365
28144.26322
28151.33083
28157.56011
28163.03533
28167.83191
28172.01694
28175.6498
28178.78259
28181.46072
28183.72334
28185.60375
28187.12982
28188.32426
28189.20491
28189.78498
28190.0732
-0.009834289473
0.03971955536
0.05169962492
0.08773786789
0.1223235915
0.1467235038
0.1527927467
0.143570176
27276.26258
27339.52856
27401.99631
27463.23602
27522.70366
27579.92748
27634.52085
27686.18808
27734.72409
27780.00895
27821.99888
27860.71528
27896.2328
27928.66764
27958.16668
27984.89778
28009.04156
28030.78464
28050.31421
28067.81391
28083.46076
28097.42304
28109.85884
28120.9153
28130.72822
28139.42206
28147.11016
28153.89518
28159.86957
28165.11622
28169.70906
28173.71363
28177.18779
28180.18219
28182.74088
28184.90178
28186.69708
28188.15371
28189.29356
28190.13384
28190.68728
28190.96227
-0.05789098316
0.05589282113
0.09716626112
0.1508597396
0.1708702305
0.1743785386
0.1726778956
0.1606427853
27276.28892
27341.77809
27406.38119
27469.5895
27530.79302
27589.474
27645.22066
27697.73179
27746.81339
27792.3693
27834.38809
27872.92815
27908.10255
27940.06484
27968.99641
27995.09575
28018.56973
28039.62672
28058.47138
28075.30091
28090.30247
28103.65152
28115.51098
28126.0308
28135.34808
28143.58742
28150.86143
28157.2714
28162.90805
28167.85224
28172.17578
28175.94208
28179.20688
28182.01886
28184.42021
28186.44718
28188.1305
28189.49576
28190.56383
28191.35103
28191.86945
28192.12703
-0.08859522789
0.05672166986
0.1218979716
0.2002537339
0.2190200357
0.2008959878
0.1919156757
0.1830781591
27276.31831
27344.74451
27412.16091
27477.94749
27541.40463
27601.95458
27659.1558
27712.70493
27762.42839
27808.26691
27850.2563
27888.50707
27923.18492
27954.49337
27982.65906
28007.91986
28030.51575
28050.68204
28068.64465
28084.6169
28098.79773
28111.37071
28122.50388
28132.34998
28141.04708
28148.71933
28155.47797
28161.42221
28166.64025
28171.21022
28175.20106
28178.67336
28181.68014
28184.26751
28186.4753
28188.33763
28189.88334
28191.13642
28192.11636
28192.83842
28193.31386
28193.55009
-0.09443233682
0.03937521127
0.1110223477
0.2087534751
0.2364152508
0.214653646
0.2001823664
0.2004132932
27276.33599
27348.54832
27419.57045
27488.63446
27554.92296
27617.78346
27676.74272
27731.50357
27781.92829
27828.01378
27869.86341
27907.65931
27941.63721
27972.06531
27999.22733
28023.40968
28044.89223
28063.94199
28080.80925
28095.72535
28108.9019
28120.53081
28130.78498
28139.81934
28147.77209
28154.76608
28160.91015
28166.30048
28171.02181
28175.14862
28178.74618
28181.87149
28184.57415
28186.89709
28188.87723
28190.54608
28191.9302
28193.05161
28193.92817
28194.57384
28194.99888
28195.21008
-0.07215524446
0.02876530329
0.08882839368
0.1811171414
0.2192741288
0.2109809551
0.1882560633
0.2042865359
27276.33746
27353.36407
27428.93802
27502.09628
27571.86864
27637.51299
27698.52757
27754.63805
27805.76734
27851.99659
27893.52453
27930.62998
27963.63988
27992.90401
28018.77603
28041.60016
28061.7024
28079.38542
28094.92601
28108.57439
28120.55479
28131.06677
28140.28705
28148.37149
28155.45707
28161.66397
28167.09732
28171.84901
28175.99918
28179.61758
28182.76488
28185.49362
28187.84923
28189.87082
28191.59182
28193.04065
28194.24115
28195.21305
28195.97228
28196.53127
28196.89917
28197.08198
-0.02452987186
0.04623364332
0.08933952549
0.1519052849
0.188652184
0.1862884424
0.1661727745
0.1934545076
27276.3314
27359.44195
27440.72112
27518.94304
27592.94133
27661.87144
27725.21586
27782.75332
27834.50629
27880.68079
27921.60846
27957.69667
27989.38893
28017.13555
28041.37347
28062.51342
28080.93274
28096.97229
28110.93604
28123.0925
28133.67719
28142.89555
28150.92613
28157.92365
28164.02195
28169.33661
28173.9674
28178.00034
28181.50957
28184.55896
28187.20343
28189.49019
28191.45969
28193.14649
28194.57996
28195.78492
28196.78209
28197.58854
28198.21802
28198.68121
28198.98595
28199.1374
0.01293089928
0.06945406442
0.1058907451
0.1364180463
0.1515983298
0.1513127542
0.1574116482
0.1744346913
27276.34101
27367.1427
27455.56107
27540.01199
27619.0808
27691.81439
27757.71023
27816.65255
27868.82353
27914.61194
27954.5322
27989.15988
28019.08433
28044.87663
28067.06979
28086.14827
28102.54388
28116.63601
28128.75442
28139.1835
28148.16705
28155.91327
28162.59943
28168.37624
28173.37166
28177.69436
28181.43657
28184.67663
28187.4811
28189.90654
28192.00102
28193.80536
28195.35419
28196.67683
28197.79798
28198.73835
28199.51513
28200.1424
28200.63144
28200.99098
28201.22743
28201.34497
0.0195826089
0.07103044233
0.1040214993
0.1187320708
0.110606574
0.112306635
0.1517526337
0.1236079304
27276.36745
27376.99818
27474.36734
27566.46093
27651.55345
27728.59342
27797.15698
27857.32245
27909.52316
27954.41143
27992.749
28025.327
28052.91273
28076.21777
28095.8818
28112.46704
28126.45958
28138.27454
28148.26326
28156.72115
28163.89539
28169.9922
28175.18327
28179.6114
28183.39532
28186.63382
28189.40913
28191.78977
28193.83294
28195.58639
28197.09006
28198.37736
28199.47623
28200.41001
28201.19814
28201.85675
28202.39907
28202.83588
28203.17574
28203.42526
28203.58922
28203.67078
0.01229590072
0.05031875244
0.06923996938
0.07648191591
0.0651335592
0.06627665981
0.1011699921
-0.00458078297
27276.92128
27389.85001
27498.44692
27599.90774
27692.07573
27773.84665
27845.00036
27905.95642
27957.53512
28000.76198
28036.72603
28066.48726
28091.02281
28111.20101
28127.7737
28141.37965
28152.554
28161.74046
28169.3041
28175.5436
28180.70232
28184.97805
28188.53124
28191.49195
28193.96562
28196.0377
28197.77759
28199.24166
28200.47576
28201.5173
28202.39677
28203.13911
28203.7647
28204.29019
28204.7292
28205.09279
28205.3899
28205.62769
28205.81179
28205.94647
28206.03482
28206.07885
0.001788703525
0.01888223303
0.01851843909
0.008483365952
0.01198919402
0.01306984875
-0.01840521789
-0.1817477267
27277.75773
27406.6748
27529.65744
27642.64229
27742.99088
27829.71418
27903.03972
27963.96711
28013.89904
28054.37596
28086.90686
28112.87434
28133.49146
28149.79102
28162.63362
28172.7251
28180.63753
28186.83041
28191.67028
28195.448
28198.39342
28200.68762
28202.47287
28203.86076
28204.93869
28205.77501
28206.42312
28206.92475
28207.31244
28207.61157
28207.84193
28208.01893
28208.15458
28208.2582
28208.33703
28208.39667
28208.44142
28208.47459
28208.49864
28208.5154
28208.52614
28208.53166
-0.009969883304
-0.01163123393
-0.02526648228
-0.05961928599
-0.05332952903
-0.05812592894
-0.1692559743
-0.2627236957
27276.8725
27428.88496
27570.85552
27698.00504
27807.52548
27898.97589
27973.47556
28032.97297
28079.71855
28115.93711
28143.65248
28164.61328
28180.27918
28191.83945
28200.24607
28206.25096
28210.44191
28213.27461
28215.09982
28216.1859
28216.73695
28216.90732
28216.81304
28216.54073
28216.15459
28215.70173
28215.21637
28214.72303
28214.23893
28213.77588
28213.34173
28212.94143
28212.57783
28212.25235
28211.96541
28211.71679
28211.50591
28211.33197
28211.19417
28211.09174
28211.02406
28210.99068
-0.02337816319
-0.03479205928
-0.05478892355
-0.09774365592
-0.1175721803
-0.1483539462
-0.2716464676
-0.02791074351
27277.75029
27460.29345
27626.86156
27770.98521
27890.12252
27985.18446
28058.91247
28114.73117
28156.06652
28186.00331
28207.15465
28221.64907
28231.17436
28237.04323
28240.2618
28241.59219
28241.60591
28240.72759
28239.26973
28237.46002
28235.46233
28233.39285
28231.33242
28229.33573
28227.43838
28225.66214
28224.01884
28222.51332
28221.14562
28219.91257
28218.80899
28217.82852
28216.96428
28216.20929
28215.55681
28215.00055
28214.53481
28214.15461
28213.85571
28213.63472
28213.48907
28213.41702
-0.03876482485
-0.05249301538
-0.07278837336
-0.1099739598
-0.150203353
-0.2200156593
-0.2653318282
0.5652376041
27280.0704
27506.45319
27705.29128
27868.93465
27996.786
28092.72383
28162.259
28210.9748
28243.81585
28264.85786
28277.31652
28283.65645
28285.72813
28284.89924
28282.16742
28278.2516
28273.66334
28268.76139
28263.79274
28258.92333
28254.26065
28249.87051
28245.7892
28242.03254
28238.60226
28235.49082
28232.68474
28230.16702
28227.91891
28225.92107
28224.15442
28222.60068
28221.24279
28220.06505
28219.05334
28218.19514
28217.47955
28216.8973
28216.44073
28216.10376
28215.88185
28215.77199
-0.05566785487
-0.06884916977
-0.08690483598
-0.117042714
-0.1403612144
-0.2253351716
-0.1629676609
1.28726408
27286.45862
27578.51743
27818.88373
28002.65391
28135.35504
28226.66576
28286.4284
28323.09792
28343.36895
28352.3
28353.60072
28349.9351
28343.18498
28334.66025
28325.25881
28315.58501
28306.03587
28296.86316
28288.21773
28280.18106
28272.7876
28266.04045
28259.9225
28254.4041
28249.44846
28245.01532
28241.06346
28237.55233
28234.44317
28231.69964
28229.2882
28227.17831
28225.34245
28223.75611
28222.39771
28221.24847
28220.2923
28219.51568
28218.90753
28218.45911
28218.16397
28218.0178
-0.0734844013
-0.08525838563
-0.09963435918
-0.1222565181
-0.1300254688
-0.186125148
-0.08305061947
1.713358339
27309.33202
27700.22785
27989.02801
28187.42158
28315.31381
28392.16294
28433.70006
28451.62808
28454.26923
28447.37819
28434.85573
28419.30169
28402.41913
28385.30014
28368.62434
28352.79527
28338.0333
28324.43886
28312.0351
28300.79671
28290.66931
28281.58229
28273.45733
28266.21402
28259.7733
28254.05971
28249.00262
28244.53687
28240.60302
28237.14736
28234.12171
28231.48319
28229.19389
28227.22055
28225.53424
28224.11007
28222.92686
28221.96696
28221.21596
28220.66258
28220.29847
28220.11814
-0.09211465763
-0.1023210519
-0.1147715732
-0.1327109906
-0.1421087707
-0.1601055129
-0.1596148636
1.522188981
27401.47171
27921.60679
28249.54766
28442.69283
28546.33447
28592.9925
28604.59803
28595.45835
28574.71139
28548.09482
28519.14733
28490.00046
28461.89243
28435.4989
28411.14481
28388.9398
28368.86443
28350.82501
28334.68814
28320.30242
28307.51169
28296.16309
28286.11159
28277.22241
28269.37211
28262.44874
28256.35161
28250.9907
28246.2859
28242.1663
28238.56934
28235.44012
28232.73066
28230.39927
28228.40998
28226.73204
28225.33947
28224.21068
28223.32815
28222.67815
28222.25059
28222.03881
-0.1112224557
-0.1200915181
-0.1327802923
-0.1478435541
-0.1711554337
-0.1659508799
-0.2796861155
0.7537977597
27722.1192
28332.461
28644.93103
28787.53148
28834.39185
28828.91295
28796.2674
28750.9133
28701.0346
28651.14989
28603.64334
28559.6638
28519.65364
28483.65998
28451.5176
28422.95585
28397.66065
28375.30956
28355.59099
28338.21406
28322.9129
28309.44779
28297.60453
28287.19299
28278.04505
28270.01263
28262.96553
28256.78957
28251.38479
28246.66382
28242.55049
28238.97858
28235.89065
28233.23719
28230.97568
28229.06998
28227.48966
28226.20952
28225.20916
28224.47266
28223.9883
28223.74839
-0.1297936688
-0.137935281
-0.1514734906
-0.1660335584
-0.1966880034
-0.1882910973
-0.3332639165
-0.08607689217
28544.12835
29038.57253
29210.45453
29228.26419
29174.87994
29092.05394
29000.67705
28910.91159
28827.37494
28751.83349
28684.61643
28625.36032
28573.40005
28527.97103
28488.3107
28453.70619
28423.51355
28397.16235
28374.15298
28354.05077
28336.47894
28321.11152
28307.66672
28295.90094
28285.60353
28276.59227
28268.70942
28261.81843
28255.80104
28250.5549
28245.99148
28242.0343
28238.61748
28235.68445
28233.18691
28231.08388
28229.34102
28227.92992
28226.82767
28226.01639
28225.48295
28225.21872
-0.1465611482
-0.1547741858
-0.1686575043
-0.1856330899
-0.2135913314
-0.2350362063
-0.3321433452
-0.6884031543
30029.77439
30065.58278
29930.47382
29740.39709
29544.91455
29363.79986
29203.50339
29064.69575
28945.72771
28844.19668
28757.6306
28683.76212
28620.61585
28566.51382
28520.04837
28480.04506
28445.52549
28415.67387
28389.80844
28367.35779
28347.84133
28330.85348
28316.0508
28303.14148
28291.87688
28282.04455
28273.46255
28265.97481
28259.44722
28253.76448
28248.82744
28244.55091
28240.86178
28237.69753
28235.00493
28232.73896
28230.86195
28229.34283
28228.15657
28227.28365
28226.70976
28226.42549
-0.160370591
-0.1692239839
-0.1830997227
-0.2047040586
-0.2272230282
-0.2927224729
-0.2979219549
-1.047310915
31952.25525
31263.90946
30705.7855
30258.08539
29900.64836
29614.75684
29384.8529
29198.64447
29046.64427
28921.5944
28817.94627
28731.44082
28658.78671
28597.41958
28545.32367
28500.90017
28462.86965
28430.19951
28402.04959
28377.73119
28356.67579
28338.41106
28322.54237
28308.73823
28296.71894
28286.24752
28277.12251
28269.17216
28262.2497
28256.22954
28251.00413
28246.48137
28242.58248
28239.24026
28236.39762
28234.00639
28232.02632
28230.42425
28229.17348
28228.25325
28227.64831
28227.34867
-0.1701783143
-0.1797506906
-0.1932204199
-0.2186570754
-0.2318829766
-0.32673934
-0.2006014289
-1.181126888
33745.63067
32335.35957
31370.6686
30685.50365
30184.82115
29809.71024
29522.4932
29298.37423
29120.60239
28977.58442
28861.11496
28765.26512
28685.6685
28619.05271
28562.9257
28515.36186
28474.85331
28440.20504
28410.45955
28384.84208
28362.72017
28343.57332
28326.97019
28312.55101
28300.01407
28289.10509
28279.60888
28271.34272
28264.15103
28257.90104
28252.47939
28247.7892
28243.74777
28240.28469
28237.34022
28234.864
28232.81403
28231.15571
28229.86121
28228.90892
28228.28294
28227.97288
-0.1752369447
-0.1852170634
-0.1981303364
-0.2250361077
-0.2294559011
-0.3316500343
-0.08546669095
-1.133194981
34819.53197
32967.50021
31755.66638
30928.25862
30343.31627
29916.70556
29596.99551
29351.73143
29159.79014
29007.01504
28883.65678
28782.83134
28699.56621
28630.1949
28571.96323
28522.76747
28480.97634
28445.30774
28414.74167
28388.45783
28365.79003
28346.19253
28329.21482
28314.48242
28301.68218
28290.55088
28280.86625
28272.43993
28265.11178
28258.7454
28253.22441
28248.4495
28244.33598
28240.8118
28237.81586
28235.2967
28233.21141
28231.52468
28230.20811
28229.23962
28228.60302
28228.2877
-0.1752369419
-0.1852170622
-0.1981303359
-0.2250361042
-0.2294558929
-0.3316499968
-0.08546667144
-1.133193504
34819.53203
32967.50025
31755.66639
30928.2586
30343.31624
29916.70552
29596.99545
29351.73138
29159.79009
29007.015
28883.65674
28782.83131
28699.5662
28630.1949
28571.96324
28522.76749
28480.97637
28445.30778
28414.74172
28388.45789
28365.7901
28346.19261
28329.21491
28314.48252
28301.68229
28290.55099
28280.86637
28272.44005
28265.11191
28258.74553
28253.22455
28248.44964
28244.33613
28240.81195
28237.81601
28235.29686
28233.21158
28231.52485
28230.20827
28229.23979
28228.60319
28228.28787
-0.1701783066
-0.1797506886
-0.1932204213
-0.218657071
-0.2318829626
-0.326739258
-0.2006013217
-1.181123073
33745.63071
32335.35969
31370.66862
30685.5036
30184.82103
29809.71008
29522.49302
29298.37405
29120.60223
28977.58428
28861.11485
28765.26504
28685.66845
28619.05269
28562.92572
28515.36191
28474.8534
28440.20516
28410.4597
28384.84227
28362.72038
28343.57356
28326.97045
28312.5513
28300.01438
28289.10542
28279.60924
28271.3431
28264.15142
28257.90145
28252.47981
28247.78963
28243.74822
28240.28515
28237.34069
28234.86449
28232.81452
28231.1562
28229.86171
28228.90942
28228.28345
28227.97339
-0.1603705807
-0.1692239849
-0.1830997323
-0.2047040695
-0.2272230385
-0.2927224357
-0.2979217928
-1.047305342
31952.25532
31263.90963
30705.78552
30258.08528
29900.64815
29614.75657
29384.85259
29198.64417
29046.64398
28921.59415
28817.94607
28731.44067
28658.78662
28597.41954
28545.3237
28500.90026
28462.8698
28430.19971
28402.04985
28377.7315
28356.67614
28338.41146
28322.54281
28308.73871
28296.71946
28286.24808
28277.1231
28269.17278
28262.25035
28256.23022
28251.00484
28246.4821
28242.58323
28239.24103
28236.39841
28234.0072
28232.02713
28230.42507
28229.17431
28228.25409
28227.64916
28227.34952
-0.1465611383
-0.154774193
-0.1686575267
-0.1856331271
-0.2135913873
-0.2350363084
-0.3321433497
-0.688397479
30029.77472
30065.58303
29930.47382
29740.39688
29544.9142
29363.79943
29203.50293
29064.69529
28945.72728
28844.19632
28757.63031
28683.76191
28620.61572
28566.51378
28520.04841
28480.04519
28445.5257
28415.67415
28389.8088
28367.35822
28347.84182
28330.85405
28316.05142
28303.14216
28291.87761
28282.04533
28273.46338
28265.97568
28259.44813
28253.76543
28248.82843
28244.55193
28240.86283
28237.69861
28235.00603
28232.74008
28230.86309
28229.34399
28228.15774
28227.28483
28226.71094
28226.42668
-0.1297936624
-0.1379352956
-0.1514735251
-0.166033612
-0.1966880894
-0.1882912753
-0.3332640899
-0.08607340872
28544.12932
29038.57293
29210.45448
29228.26383
29174.87939
29092.0533
29000.67638
28910.91095
28827.37436
28751.833
28684.61603
28625.36004
28573.39988
28527.97097
28488.31075
28453.70635
28423.51382
28397.16272
28374.15344
28354.05132
28336.47958
28321.11225
28307.66753
28295.90182
28285.60448
28276.59328
28268.71049
28261.81956
28255.80222
28250.55614
28245.99275
28242.03562
28238.61883
28235.68584
28233.18833
28231.08533
28229.34249
28227.93141
28226.82918
28226.01791
28225.48448
28225.22025
-0.111222455
-0.1200915409
-0.1327803372
-0.1478436012
-0.1711555093
-0.1659509317
-0.2796863346
0.7537996989
27722.12109
28332.46144
28644.93078
28787.53085
28834.39101
28828.91202
28796.26647
28750.91244
28701.03383
28651.14925
28603.64284
28559.66344
28519.65343
28483.65992
28451.51767
28422.95606
28397.66099
28375.31002
28355.59156
28338.21475
28322.9137
28309.44868
28297.60552
28287.19406
28278.04622
28270.01387
28262.96685
28256.79096
28251.38624
28246.66533
28242.55206
28238.9802
28235.89232
28233.2389
28230.97743
28229.07176
28227.49147
28226.21135
28225.211
28224.47452
28223.99017
28223.75026
-0.09211466249
-0.102321088
-0.1147716408
-0.1327110425
-0.142108794
-0.160105224
-0.159614696
1.522185103
27401.47219
27921.60657
28249.54691
28442.69174
28546.33321
28592.9912
28604.59679
28595.45723
28574.71042
28548.09402
28519.14672
28490.00003
28461.89218
28435.49882
28411.1449
28388.94005
28368.86484
28350.82556
28334.68883
28320.30324
28307.51264
28296.16416
28286.11277
28277.2237
28269.37349
28262.45022
28256.35318
28250.99234
28246.28763
28242.1681
28238.57121
28235.44205
28232.73264
28230.40129
28228.41205
28226.73415
28225.34162
28224.21285
28223.33034
28222.68036
28222.25281
28222.04103
-0.07348440613
-0.085258438
-0.09963448136
-0.1222566887
-0.1300256859
-0.1861248974
-0.08304973579
1.713350832
27309.33098
27700.22681
27989.02659
28187.41988
28315.31201
28392.16118
28433.69844
28451.62666
28454.26803
28447.37723
28434.85499
28419.30118
28402.41884
28385.30005
28368.62446
28352.79557
28338.03379
28324.43951
28312.03591
28300.79768
28290.67042
28281.58353
28273.45871
28266.21551
28259.77491
28254.06143
28249.00444
28244.53878
28240.60502
28237.14944
28234.12387
28231.48541
28229.19618
28227.22289
28225.53664
28224.11251
28222.92934
28221.96947
28221.2185
28220.66514
28220.30104
28220.12071
-0.05566784545
-0.06884921796
-0.08690501352
-0.1170431201
-0.140361914
-0.2253357635
-0.162967486
1.287260755
27286.45801
27578.51597
27818.88154
28002.65141
28135.35253
28226.66344
28286.42636
28323.09618
28343.36752
28352.29886
28353.59987
28349.93452
28343.18465
28334.66017
28325.25896
28315.58537
28306.03644
28296.86391
28288.21867
28280.18217
28272.78887
28266.04187
28259.92407
28254.40581
28249.4503
28245.01728
28241.06553
28237.55451
28234.44545
28231.70201
28229.29066
28227.18084
28225.34505
28223.75878
28222.40044
28221.25125
28220.29512
28219.51854
28218.91042
28218.46202
28218.16689
28218.02074
-0.03876478145
-0.05249299701
-0.07278849685
-0.1099744791
-0.1502044205
-0.2200169362
-0.2653325514
0.5652473576
27280.0718
27506.45116
27705.28791
27868.93103
27996.78262
28092.72086
28162.25648
28210.97273
28243.81418
28264.85656
28277.31557
28283.65582
28285.7278
28284.89917
28282.16761
28278.25204
28273.66401
28268.76226
28263.79382
28258.9246
28254.2621
28249.87212
28245.79098
28242.03447
28238.60433
28235.49303
28232.68707
28230.16947
28227.92148
28225.92374
28224.15718
28222.60354
28221.24572
28220.06805
28219.05641
28218.19826
28217.48272
28216.90051
28216.44398
28216.10703
28215.88514
28215.77529
-0.0233780717
-0.03479187836
-0.05478872259
-0.09774373935
-0.117572775
-0.1483547051
-0.2716467354
-0.02790592342
27277.75086
27460.28879
27626.85589
27770.97999
27890.11809
27985.18081
28058.9095
28114.72879
28156.06465
28186.00188
28207.15363
28221.64841
28231.17403
28237.04321
28240.26206
28241.59271
28241.60668
28240.72859
28239.27095
28237.46145
28235.46395
28233.39466
28231.3344
28229.33788
28227.4407
28225.66461
28224.02144
28222.51606
28221.14848
28219.91554
28218.81206
28217.83169
28216.96754
28216.21263
28215.56022
28215.00402
28214.53834
28214.15818
28213.85932
28213.63836
28213.49272
28213.42068
-0.00996975011
-0.01163083174
-0.02526573884
-0.059618435
-0.05332902027
-0.05812570956
-0.1692554824
-0.2627722973
27276.86571
27428.8735
27570.8461
27697.99787
27807.52
27898.97164
27973.47223
28032.97037
28079.71654
28115.9356
28143.65142
28164.61261
28180.27887
28191.83948
28200.2464
28206.25157
28210.4428
28213.27575
28215.10119
28216.1875
28216.73876
28216.90934
28216.81525
28216.54312
28216.15715
28215.70445
28215.21925
28214.72605
28214.24208
28213.77916
28213.34512
28212.94492
28212.58142
28212.25603
28211.96917
28211.72062
28211.5098
28211.33591
28211.19815
28211.09575
28211.02808
28210.99471
0.001788844328
0.01888277563
0.0185195728
0.008484897301
0.01199031532
0.01307033586
-0.01840460314
-0.182180922
27277.69823
27406.64976
27529.64401
27642.63373
27742.98482
27829.70964
27903.03623
27963.96442
28013.89698
28054.37444
28086.9058
28112.87371
28133.49121
28149.79112
28162.63405
28172.72583
28180.63855
28186.83169
28191.67182
28195.44978
28198.39544
28200.68985
28202.4753
28203.86339
28204.94151
28205.778
28206.42628
28206.92806
28207.31589
28207.61515
28207.84564
28208.02276
28208.15852
28208.26223
28208.34115
28208.40086
28208.44568
28208.4789
28208.50299
28208.51978
28208.53054
28208.53607
0.01229598107
0.05031919516
0.06924095394
0.07648322821
0.06513437643
0.06627681026
0.1011700641
-0.004757849459
27276.89704
27389.8342
27498.4363
27599.90017
27692.07007
27773.84229
27844.99697
27905.95378
27957.53311
28000.76051
28036.72504
28066.4867
28091.02264
28111.20121
28127.77424
28141.38051
28152.55516
28161.7419
28169.30582
28175.54557
28180.70454
28184.9805
28188.53391
28191.49483
28193.96869
28196.04097
28197.78103
28199.24526
28200.47953
28201.52121
28202.40081
28203.14328
28203.76897
28204.29457
28204.73367
28205.09734
28205.39453
28205.63238
28205.81652
28205.95124
28206.03961
28206.08366
0.01958254565
0.07103051001
0.1040218173
0.1187326092
0.1106068672
0.1123065766
0.1517524412
0.1236747917
27276.37659
27376.99481
27474.36166
27566.45549
27651.54879
27728.58959
27797.15388
27857.32
27909.52129
27954.41008
27992.74811
28025.32654
28052.91267
28076.21808
28095.88246
28112.46804
28126.46089
28138.27615
28148.26516
28156.72332
28163.89782
28169.99488
28175.18618
28179.61453
28183.39867
28186.63737
28189.41286
28191.79368
28193.83701
28195.59062
28197.09443
28198.38187
28199.48086
28200.41476
28201.20299
28201.86168
28202.40408
28202.84095
28203.18087
28203.43042
28203.59441
28203.67598
0.01293062658
0.06945365699
0.1058903888
0.136417999
0.1515983545
0.1513126234
0.157411394
0.1744616625
27276.34476
27367.14158
27455.55776
27540.00813
27619.07711
27691.81115
27757.70752
27816.65036
27868.82185
27914.61074
27954.53145
27989.15955
28019.0844
28044.87708
28067.0706
28086.14943
28102.54536
28116.63781
28128.75652
28139.18588
28148.1697
28155.91618
28162.6026
28168.37964
28173.37528
28177.69819
28181.4406
28184.68085
28187.4855
28189.91111
28192.00574
28193.81022
28195.35918
28196.68194
28197.8032
28198.74366
28199.52053
28200.14787
28200.63696
28200.99655
28201.23302
28201.35057
-0.0245302872
0.04623298689
0.08933892382
0.1519051023
0.1886521762
0.1862883369
0.1661725915
0.1934535469
27276.33133
27359.44043
27440.71854
27518.94003
27592.93834
27661.86872
27725.21352
27782.75141
27834.50483
27880.67977
27921.60787
27957.6965
27989.38915
28017.13616
28041.37445
28062.51475
28080.93441
28096.97428
28110.93834
28123.0951
28133.68008
28142.89871
28150.92955
28157.92732
28164.02585
28169.34074
28173.97174
28178.00488
28181.5143
28184.56386
28187.2085
28189.49541
28191.46505
28193.15197
28194.58556
28195.79062
28196.78788
28197.59441
28198.22395
28198.68718
28198.99196
28199.14342
-0.0721556127
0.02876476677
0.08882793371
0.1811169955
0.2192740847
0.2109808182
0.1882558924
0.2042705777
27276.33533
27353.3618
27428.93552
27502.09367
27571.8661
27637.51067
27698.52556
27754.63641
27805.7661
27851.99576
27893.52412
27930.62997
27963.64026
27992.90478
28018.77718
28041.60166
28061.70425
28079.38762
28094.92853
28108.57722
28120.55791
28131.07018
28140.29074
28148.37543
28155.46127
28161.66839
28167.10197
28171.85388
28176.00424
28179.62283
28182.7703
28185.4992
28187.85497
28189.87669
28191.59782
28193.04675
28194.24735
28195.21933
28195.97862
28196.53767
28196.9056
28197.08843
-0.09443251996
0.03937488353
0.1110219665
0.2087531768
0.2364150129
0.2146533805
0.2001820966
0.2003848632
27276.33213
27348.5454
27419.56791
27488.63207
27554.92073
27617.78144
27676.74097
27731.50217
27781.92726
27828.01314
27869.86317
27907.65947
27941.63777
27972.06626
27999.22866
28023.41138
28044.89428
28063.9444
28080.81199
28095.72841
28108.90527
28120.53448
28130.78894
28139.82357
28147.77658
28154.77082
28160.91513
28166.30568
28171.02722
28175.15422
28178.75197
28181.87745
28184.58026
28186.90334
28188.88362
28190.55259
28191.93681
28193.05831
28193.93495
28194.58067
28195.00575
28195.21697
-0.08859524372
0.05672133926
0.1218974069
0.2002531354
0.2190195307
0.2008955776
0.1919152925
0.1830398073
27276.31309
27344.7415
27412.15854
27477.94533
27541.40263
27601.95278
27659.15427
27712.70373
27762.42754
27808.26645
27850.25624
27888.5074
27923.18565
27954.4945
27982.66057
28007.92175
28030.51801
28050.68467
28068.64762
28084.62021
28098.80135
28111.37465
28122.50812
28132.3545
28141.05187
28148.72439
28155.48327
28161.42774
28166.646
28171.21618
28175.20721
28178.67969
28181.68664
28184.27416
28186.4821
28188.34455
28189.89037
28191.14355
28192.12357
28192.8457
28193.32118
28193.55743
-0.05789094815
0.05589235608
0.09716550383
0.1508589635
0.1708696117
0.1743780492
0.1726774421
0.1606323981
27276.28756
27341.77656
27406.37941
27469.58763
27530.79121
27589.47237
27645.21929
27697.73074
27746.8127
27792.369
27834.38819
27872.92865
27908.10346
27940.06615
27968.99811
27995.09784
28018.57221
28039.62957
28058.47459
28075.30447
28090.30636
28103.65574
28115.5155
28126.03562
28135.35319
28143.5928
28150.86706
28157.27728
28162.91415
28167.85857
28172.18231
28175.9488
28179.21377
28182.02591
28184.42742
28186.45453
28188.13796
28189.50334
28190.57149
28191.35877
28191.87723
28192.13484
-0.009834266649
0.03971911351
0.05169894534
0.08773718367
0.1223230243
0.1467230376
0.1527922977
0.1435955659
27276.26613
27339.52858
27401.99499
27463.23429
27522.70191
27579.92592
27634.51957
27686.18715
27734.72354
27780.00879
27821.99913
27860.71595
27896.23388
27928.66913
27958.16858
27984.90008
28009.04425
28030.78772
28050.31766
28067.81772
28083.46492
28097.42753
28109.86365
28120.92043
28130.73364
28139.42777
28147.11614
28153.9014
28159.87604
28165.12292
28169.71596
28173.72074
28177.19508
28180.18965
28182.7485
28184.90955
28186.70499
28188.16173
28189.30168
28190.14205
28190.69555
28190.97057
0.0585367561
0.04023384149
0.02901785848
0.05518118167
0.09739891766
0.1325449438
0.14199642
0.1390786528
27276.25514
27337.91136
27398.83784
27458.65242
27516.85602
27573.00966
27626.74581
27677.7747
27725.88557
27770.94365
27812.88388
27851.70251
27887.44746
27920.20851
27950.10766
27977.29038
28001.91783
28024.16027
28044.19156
28062.18482
28078.30911
28092.72688
28105.59227
28117.04993
28127.23437
28136.26969
28144.26954
28151.33741
28157.56695
28163.0424
28167.8392
28172.02445
28175.65749
28178.79047
28181.46877
28183.73154
28185.6121
28187.1383
28188.33285
28189.2136
28189.79376
28190.08202
0.1886945774
0.0990249656
0.05609186261
0.06553468047
0.1027803906
0.133856264