/*--------------------------------*- C++ -*----------------------------------*\
  =========                 |
  \\      /  F ield         | OpenFOAM: The Open Source CFD Toolbox
   \\    /   O peration     | Website:  https://openfoam.org
    \\  /    A nd           | Version:  6
     \\/     M anipulation  |
\*---------------------------------------------------------------------------*/
FoamFile
{
    version     2.0;
    format      ascii;
    class       surfaceScalarField;
    location    "0.07";
    object      phi;
}
// * * * * * * * * * * * * * * * * * * * * * * * * * * * * * * * * * * * * * //

dimensions      [0 3 -1 0 0 0 0];

internalField   nonuniform List<scalar> 
4900
(
-2.574634743e-08
-9.211603934e-08
2.365025123e-08
-4.939659862e-08
3.431470109e-08
-1.066444985e-08
2.651217995e-08
7.802521093e-09
1.532996962e-08
1.11822103e-08
6.739771097e-09
8.590198521e-09
5.583619984e-11
6.683934907e-09
-2.686788509e-17
5.583623831e-11
-5.994275456e-21
9.749304997e-25
-5.943299622e-21
-5.097583389e-23
-5.842952406e-21
-1.003504096e-22
-5.69690275e-21
-1.460568356e-22
-5.510085889e-21
-1.868277846e-22
-5.288439071e-21
-2.216613817e-22
-5.038532329e-21
-2.499249007e-22
-4.767184419e-21
-2.713696262e-22
-4.481112191e-21
-2.86097458e-22
-4.186641462e-21
-2.944994271e-22
-3.889492545e-21
-2.971810285e-22
-3.5946421e-21
-2.948859093e-22
-3.306254741e-21
-2.884261127e-22
-3.027672894e-21
-2.786238169e-22
-2.761451306e-21
-2.662666985e-22
-2.509422562e-21
-2.520769145e-22
-2.272781401e-21
-2.366923052e-22
-2.052177747e-21
-2.206576827e-22
-1.847810732e-21
-2.044238334e-22
-1.659518272e-21
-1.883519706e-22
-1.486858703e-21
-1.727216729e-22
-1.329182571e-21
-1.57740725e-22
-1.185693875e-21
-1.435556709e-22
-1.055500885e-21
-1.302622399e-22
-9.376571979e-22
-1.179151012e-22
-8.311940289e-22
-1.06536635e-22
-7.351448581e-22
-9.612457537e-23
-6.485635854e-22
-8.665850129e-23
-5.705372939e-22
-7.810522848e-23
-5.001946238e-22
-7.042319903e-23
-4.367106381e-22
-6.356598972e-23
-3.79308934e-22
-5.748506591e-23
-3.272616312e-22
-5.213190479e-23
-2.798877532e-22
-4.745960256e-23
-2.365504142e-22
-4.34240682e-23
-1.966531364e-22
-3.998489398e-23
-1.596355383e-22
-3.710598359e-23
-1.249685567e-22
-3.475601892e-23
-9.214924937e-23
-3.290887932e-23
-6.069495846e-23
-3.154428066e-23
-3.013571574e-23
-3.064953353e-23
-3.022619059e-23
-5.656696981e-08
-1.341753511e-07
-1.639210736e-08
-8.957146109e-08
8.855342654e-09
-3.591189989e-08
1.659599766e-08
6.186606555e-11
1.191914607e-08
1.585906182e-08
5.314870831e-09
1.519447365e-08
1.82138231e-11
1.198059174e-08
9.805253397e-18
7.404979681e-11
-6.046071344e-21
4.679961417e-26
-5.992664965e-21
-1.043885891e-22
-5.888652495e-21
-2.043762352e-22
-5.73766869e-21
-2.97060873e-22
-5.544916318e-21
-3.796069327e-22
-5.316701339e-21
-4.499095619e-22
-5.059977555e-21
-5.066882368e-22
-4.781914196e-21
-5.494788116e-22
-4.489517177e-21
-5.78546489e-22
-4.189326771e-21
-5.947479359e-22
-3.887201476e-21
-5.993704081e-22
-3.588186405e-21
-5.939709277e-22
-3.296456374e-21
-5.802318266e-22
-3.015319378e-21
-5.598420947e-22
-2.747264704e-21
-5.344081068e-22
-2.49404067e-21
-5.05392981e-22
-2.256749026e-21
-4.740811188e-22
-2.035945698e-21
-4.415631503e-22
-1.831740262e-21
-4.087362029e-22
-1.643889009e-21
-3.763147712e-22
-1.471878483e-21
-3.448481749e-22
-1.314997991e-21
-3.14741433e-22
-1.172400714e-21
-2.862772089e-22
-1.043153855e-21
-2.596372065e-22
-9.262787171e-22
-2.349219936e-22
-8.207818641e-22
-2.121686865e-22
-7.256786153e-22
-1.913662613e-22
-6.400101022e-22
-1.724684833e-22
-5.628550299e-22
-1.554045934e-22
-4.933371697e-22
-1.400879664e-22
-4.306294698e-22
-1.264230014e-22
-3.739555367e-22
-1.143105052e-22
-3.225891071e-22
-1.036518243e-22
-2.758520155e-22
-9.435195712e-23
-2.331110584e-22
-8.632185081e-23
-1.937740686e-22
-7.948006157e-23
-1.572854424e-22
-7.375392976e-23
-1.231213152e-22
-6.908039904e-23
-9.078458711e-23
-6.540658546e-23
-5.980021877e-23
-6.269014659e-23
-2.971235915e-23
-6.089921151e-23
-6.000998119e-23
-8.682834014e-08
-1.542021039e-07
-5.059425361e-08
-1.258055476e-07
-1.904811737e-08
-6.745803616e-08
-1.443690591e-09
-1.754256077e-08
2.717506942e-09
1.169786424e-08
1.463533529e-09
1.644844704e-08
-3.369840588e-10
1.378110935e-08
2.778268067e-19
-2.62934289e-10
-6.149907562e-21
-1.925146867e-24
-6.092630803e-21
-1.616705705e-22
-5.981322961e-21
-3.156952025e-22
-5.820204237e-21
-4.581966652e-22
-5.615212551e-21
-5.846213751e-22
-5.373477695e-21
-6.916727728e-22
-5.102769454e-21
-7.774303714e-22
-4.810986152e-21
-8.413014804e-22
-4.505725055e-21
-8.838523519e-22
-4.193957022e-21
-9.065660493e-22
-3.881810401e-21
-9.115723318e-22
-3.574455744e-21
-9.013860074e-22
-3.27607467e-21
-8.786783313e-22
-2.989892703e-21
-8.460943837e-22
-2.718255998e-21
-8.061198969e-22
-2.46273426e-21
-7.609944346e-22
-2.224235543e-21
-7.126640413e-22
-2.003122323e-21
-6.627649204e-22
-1.799321577e-21
-6.126296915e-22
-1.612424438e-21
-5.633086888e-22
-1.441773156e-21
-5.156001111e-22
-1.286534677e-21
-4.700842757e-22
-1.145761216e-21
-4.27158575e-22
-1.018438829e-21
-3.87070867e-22
-9.035253564e-22
-3.499499349e-22
-7.999792091e-22
-3.158323205e-22
-7.06780485e-22
-2.846853115e-22
-6.229457805e-22
-2.564261734e-22
-5.475379262e-22
-2.309379114e-22
-4.796717098e-22
-2.080819426e-22
-4.185164812e-22
-1.877081031e-22
-3.632963817e-22
-1.696624079e-22
-3.132887955e-22
-1.537929604e-22
-2.678215027e-22
-1.399543629e-22
-2.262689065e-22
-1.280109396e-22
-1.88047622e-22
-1.17839035e-22
-1.526116476e-22
-1.093286061e-22
-1.194472903e-22
-1.023842887e-22
-8.806798904e-23
-9.69260667e-23
-5.800916466e-23
-9.288961577e-23
-2.882301917e-23
-9.022628079e-23
-8.890259176e-23
-1.069418397e-07
-1.583087665e-07
-7.862472239e-08
-1.541226649e-07
-4.337029588e-08
-1.027124626e-07
-1.737373239e-08
-4.353912431e-08
-5.682635399e-09
6.76716887e-12
-2.337342751e-09
1.31031543e-08
-4.970321388e-10
1.194079867e-08
3.340697944e-18
-7.599664915e-10
-6.309919888e-21
-4.752875639e-24
-6.246622867e-21
-2.249727312e-22
-6.123801667e-21
-4.385273287e-22
-5.946612478e-21
-6.354026262e-22
-5.72225435e-21
-8.090018777e-22
-5.459232327e-21
-9.547226914e-22
-5.166643386e-21
-1.07005267e-21
-4.853544427e-21
-1.154439193e-21
-4.528449388e-21
-1.208991469e-21
-4.198975865e-21
-1.236088891e-21
-3.871637421e-21
-1.238965245e-21
-3.551761282e-21
-1.221321664e-21
-3.243503142e-21
-1.187000929e-21
-2.949929406e-21
-1.139737399e-21
-2.67314026e-21
-1.082983021e-21
-2.414412043e-21
-1.019801196e-21
-2.174343082e-21
-9.52815975e-22
-1.952992343e-21
-8.842029161e-22
-1.750004564e-21
-8.157088629e-22
-1.564718762e-21
-7.486898642e-22
-1.396259308e-21
-6.841587599e-22
-1.243610216e-21
-6.228362211e-22
-1.105674152e-21
-5.652009851e-22
-9.813180802e-22
-5.115366081e-22
-8.694075792e-22
-4.619732565e-22
-7.688317871e-22
-4.165239103e-22
-6.785207627e-22
-3.751149345e-22
-5.974568263e-22
-3.376113319e-22
-5.246812074e-22
-3.038371972e-22
-4.59297101e-22
-2.735919812e-22
-4.004700272e-22
-2.466631941e-22
-3.474262077e-22
-2.228361491e-22
-2.9944952e-22
-2.019012934e-22
-2.558774616e-22
-1.836596092e-22
-2.16096452e-22
-1.679264988e-22
-1.795367167e-22
-1.545345006e-22
-1.456669304e-22
-1.433351226e-22
-1.139887468e-22
-1.342000217e-22
-8.403129498e-23
-1.270217064e-22
-5.534566249e-23
-1.217138934e-22
-2.749924595e-23
-1.182116172e-22
-1.164712677e-22
-1.130478997e-07
-1.470530905e-07
-9.824424928e-08
-1.689263154e-07
-6.353258838e-08
-1.374241235e-07
-2.960157147e-08
-7.747014123e-08
-1.059311924e-08
-1.90016851e-08
-4.163268518e-09
6.673303526e-09
-3.113547043e-10
8.088884795e-09
1.636467654e-17
-1.071321247e-09
-6.531825986e-21
-5.933368214e-24
-6.460133841e-21
-2.96670012e-22
-6.320644002e-21
-5.780280807e-22
-6.120188732e-21
-8.358746468e-22
-5.867962605e-21
-1.061250353e-21
-5.574559535e-21
-1.248153623e-21
-5.251035442e-21
-1.393610082e-21
-4.908108582e-21
-1.497404763e-21
-4.555562959e-21
-1.561581121e-21
-4.201870706e-21
-1.589830408e-21
-3.854013035e-21
-1.586877325e-21
-3.517459204e-21
-1.557934946e-21
-3.19625686e-21
-1.508267658e-21
-2.893190335e-21
-1.442873128e-21
-2.609971547e-21
-1.366275704e-21
-2.347437695e-21
-1.282413506e-21
-2.105738754e-21
-1.194597797e-21
-1.884505068e-21
-1.105523762e-21
-1.682990628e-21
-1.017314594e-21
-1.50019126e-21
-9.315844991e-22
-1.334939162e-21
-8.495099418e-22
-1.185976398e-21
-7.719017247e-22
-1.052010426e-21
-6.99273184e-22
-9.317547943e-22
-6.319017869e-22
-8.239578658e-22
-5.698828791e-22
-7.274221372e-22
-5.131753064e-22
-6.410162815e-22
-4.616392553e-22
-5.636816898e-22
-4.15067009e-22
-4.944349297e-22
-3.732074844e-22
-4.323672413e-22
-3.357854593e-22
-3.766419352e-22
-3.025163722e-22
-3.264903576e-22
-2.731175008e-22
-2.812069134e-22
-2.47316233e-22
-2.401435144e-22
-2.24856044e-22
-2.027037118e-22
-2.055006967e-22
-1.683366973e-22
-1.890370892e-22
-1.365312923e-22
-1.752770998e-22
-1.068100004e-22
-1.640587029e-22
-7.872315731e-23
-1.552465753e-22
-5.184316836e-23
-1.487323634e-22
-2.575878825e-23
-1.444347518e-22
-1.422994836e-22
-1.022260184e-07
-1.220899418e-07
-1.05896365e-07
-1.65255969e-07
-7.996654013e-08
-1.633539484e-07
-4.0528928e-08
-1.169077534e-07
-1.158610864e-08
-4.79445045e-08
-3.502592595e-09
-1.410212538e-09
2.664960325e-11
4.559642562e-09
1.811295254e-17
-1.044671658e-09
-6.82518624e-21
-4.928343758e-24
-6.741438561e-21
-3.80422828e-22
-6.578445814e-21
-7.41031744e-22
-6.345534446e-21
-1.06880277e-21
-6.054851003e-21
-1.351956149e-21
-5.720014905e-21
-1.583017591e-21
-5.354840317e-21
-1.758817996e-21
-4.97230337e-21
-1.879980429e-21
-4.583835841e-21
-1.950092689e-21
-4.198943662e-21
-1.974771863e-21
-3.825096955e-21
-1.960778452e-21
-3.467816885e-21
-1.915274481e-21
-3.130884936e-21
-1.845264006e-21
-2.816612589e-21
-1.757214692e-21
-2.526125896e-21
-1.656836308e-21
-2.259635456e-21
-1.548982419e-21
-2.01667533e-21
-1.437640819e-21
-1.796303968e-21
-1.325982301e-21
-1.597266415e-21
-1.216443454e-21
-1.418120756e-21
-1.110825441e-21
-1.257333512e-21
-1.010396287e-21
-1.113349245e-21
-9.159887478e-22
-9.84639507e-22
-8.280891665e-22
-8.697356819e-22
-7.469151758e-22
-7.672495952e-22
-6.72481677e-22
-6.758850487e-22
-6.046555375e-22
-5.94442781e-22
-5.43200005e-22
-5.218207902e-22
-4.878101021e-22
-4.570114829e-22
-4.381403356e-22
-3.990967416e-22
-3.938260068e-22
-3.472417016e-22
-3.544993006e-22
-3.006878079e-22
-3.198011847e-22
-2.58745544e-22
-2.893900079e-22
-2.207871021e-22
-2.629475371e-22
-1.862391643e-22
-2.401830447e-22
-1.545758983e-22
-2.208359436e-22
-1.253122191e-22
-2.046773646e-22
-9.799733142e-23
-1.915109924e-22
-7.2208539e-23
-1.81173405e-22
-4.754528572e-23
-1.735341082e-22
-2.362338469e-23
-1.684954173e-22
-1.659923092e-22
-7.684793692e-08
-8.806080629e-08
-9.899768492e-08
-1.43106221e-07
-8.971171399e-08
-1.726399194e-07
-5.435483239e-08
-1.52264635e-07
-1.56034923e-08
-8.669584461e-08
-4.34543434e-10
-1.657916141e-08
3.016590369e-10
3.823440079e-09
2.419126097e-18
-7.430126118e-10
-7.203188581e-21
-3.010926331e-24
-7.101981549e-21
-4.81634999e-22
-6.906158014e-21
-9.368661997e-22
-6.628650472e-21
-1.346327073e-21
-6.285896593e-21
-1.694732389e-21
-5.895818401e-21
-1.973123663e-21
-5.476020653e-21
-2.178649083e-21
-5.042443676e-21
-2.313596139e-21
-4.608548779e-21
-2.38403164e-21
-4.184986025e-21
-2.39838391e-21
-3.779627975e-21
-2.366190942e-21
-3.397838724e-21
-2.297123217e-21
-3.042864153e-21
-2.200302999e-21
-2.716258459e-21
-2.083889626e-21
-2.418291937e-21
-1.954876765e-21
-2.148309703e-21
-1.819043151e-21
-1.905028991e-21
-1.681004453e-21
-1.686774126e-21
-1.544324369e-21
-1.49165474e-21
-1.411654174e-21
-1.317695767e-21
-1.284879726e-21
-1.162928406e-21
-1.165262778e-21
-1.025450753e-21
-1.053569185e-21
-9.034655922e-22
-9.501806018e-22
-7.95301519e-22
-8.551888432e-22
-6.994222736e-22
-7.684736644e-22
-6.144279929e-22
-6.897655339e-22
-5.390511522e-22
-6.186953592e-22
-4.721492015e-22
-5.548331867e-22
-4.126953165e-22
-4.977177963e-22
-3.597682414e-22
-4.4687892e-22
-3.125418786e-22
-4.018535837e-22
-2.70275041e-22
-3.621978443e-22
-2.323016204e-22
-3.274949713e-22
-1.980213076e-22
-2.973609325e-22
-1.668909195e-22
-2.714478743e-22
-1.384163382e-22
-2.49446144e-22
-1.121450302e-22
-2.310852884e-22
-8.765909192e-23
-2.161343622e-22
-6.456875396e-23
-2.044018091e-22
-4.250626991e-23
-1.957351119e-22
-2.112011437e-23
-1.900203649e-22
-1.871818798e-22
-4.519616614e-08
-5.206127234e-08
-7.996350462e-08
-1.083388825e-07
-8.972398232e-08
-1.628794418e-07
-6.721389602e-08
-1.747747214e-07
-2.68596792e-08
-1.270500615e-07
2.449704484e-10
-4.368381106e-08
2.388188525e-10
3.82959168e-09
-1.510429152e-17
-5.041937514e-10
-7.683363134e-21
-2.50039491e-24
-7.557128979e-21
-6.078742952e-22
-7.315542572e-21
-1.178463531e-21
-6.977011013e-21
-1.684875401e-21
-6.564273588e-21
-2.107492184e-21
-6.101355215e-21
-2.436069925e-21
-5.610997987e-21
-2.669039662e-21
-5.11292126e-21
-2.811711614e-21
-4.622948686e-21
-2.874048284e-21
-4.152841364e-21
-2.868540543e-21
-3.710605824e-21
-2.80848094e-21
-3.301059274e-21
-2.706729272e-21
-2.926485727e-21
-2.574940988e-21
-2.587274477e-21
-2.423170139e-21
-2.282481392e-21
-2.259743809e-21
-2.010288817e-21
-2.091314249e-21
-1.768362161e-21
-1.923014058e-21
-1.554113359e-21
-1.758660402e-21
-1.364886601e-21
-1.600972295e-21
-1.198082649e-21
-1.451779019e-21
-1.051236723e-21
-1.312207864e-21
-9.220626305e-22
-1.182846093e-21
-8.084732344e-22
-1.063876303e-21
-7.085849947e-22
-9.551867086e-22
-6.207122997e-22
-8.564591334e-22
-5.433556704e-22
-7.672379114e-22
-4.751866754e-22
-6.869829005e-22
-4.150314616e-22
-6.151095675e-22
-3.618541268e-22
-5.510187401e-22
-3.147406869e-22
-4.941182314e-22
-2.728840569e-22
-4.438381675e-22
-2.355702489e-22
-3.996415078e-22
-2.021658434e-22
-3.610309531e-22
-1.72106702e-22
-3.275531899e-22
-1.448878378e-22
-2.988012129e-22
-1.200543285e-22
-2.744153051e-22
-9.719314683e-23
-2.540831181e-22
-7.592577664e-23
-2.375391957e-22
-5.59014875e-23
-2.245641957e-22
-3.67911447e-23
-2.149840052e-22
-1.828144047e-23
-2.086688917e-22
-2.055327922e-22
-1.653897354e-08
-2.3259193e-08
-5.573683454e-08
-6.91410215e-08
-8.177994745e-08
-1.368363288e-07
-7.589589843e-08
-1.806587704e-07
-4.24773089e-08
-1.60468651e-07
-7.001363943e-09
-7.915975602e-08
-2.837984749e-10
-2.887973774e-09
-1.769960047e-17
-7.879922228e-10
-8.289918838e-21
-5.695120313e-24
-8.127594987e-21
-7.702032897e-22
-7.821856475e-21
-1.48421297e-21
-7.399576586e-21
-2.107172063e-21
-6.89284344e-21
-2.614247707e-21
-6.334351428e-21
-2.994589837e-21
-5.753719667e-21
-3.249704785e-21
-5.175320303e-21
-3.390149739e-21
-4.617507337e-21
-3.431905335e-21
-4.092846003e-21
-3.393251204e-21
-3.608912391e-21
-3.292469029e-21
-3.169321229e-21
-3.146379959e-21
-2.774756492e-21
-2.96957019e-21
-2.423881395e-21
-2.774114522e-21
-2.114077487e-21
-2.5696217e-21
-1.842007707e-21
-2.363462577e-21
-1.604022098e-21
-2.161082642e-21
-1.396434398e-21
-1.96633536e-21
-1.215698963e-21
-1.78179912e-21
-1.058514432e-21
-1.609058921e-21
-9.218758676e-22
-1.448945617e-21
-8.030922842e-22
-1.301732523e-21
-6.997820515e-22
-1.167292872e-21
-6.098551439e-22
-1.045223274e-21
-5.314883796e-22
-9.349387037e-22
-4.630977392e-22
-8.357443324e-22
-4.033103488e-22
-7.4688887e-22
-3.509376753e-22
-6.67603441e-22
-3.049507706e-22
-5.971292871e-22
-2.644579395e-22
-5.347369676e-22
-2.286849121e-22
-4.797391823e-22
-1.96957429e-22
-4.314988801e-22
-1.686860463e-22
-3.894339457e-22
-1.433529275e-22
-3.530194581e-22
-1.20500369e-22
-3.217882792e-22
-9.972081494e-23
-2.95330544e-22
-8.064812828e-23
-2.732924856e-22
-6.294990653e-23
-2.553749131e-22
-4.632064871e-23
-2.413315829e-22
-3.047560111e-23
-2.309676349e-22
-1.514512655e-23
-2.241382201e-22
-2.207474066e-22
9.352335426e-10
-7.44908414e-09
-3.37377609e-08
-3.446802707e-08
-7.022147508e-08
-1.003526146e-07
-8.051477688e-08
-1.703654686e-07
-5.688643977e-08
-1.840969882e-07
-1.804631117e-08
-1.179998846e-07
-2.070997975e-10
-2.072718512e-08
-9.568084172e-18
-9.950920037e-10
-9.056954888e-21
-1.081844182e-23
-8.841410405e-21
-9.85752918e-22
-8.44469149e-21
-1.880942816e-21
-7.906597967e-21
-2.645282365e-21
-7.273193009e-21
-3.24767505e-21
-6.589519034e-21
-3.67829172e-21
-5.894244395e-21
-3.945012797e-21
-5.217167184e-21
-4.067265723e-21
-4.578944525e-21
-4.070172095e-21
-3.992147867e-21
-3.980097206e-21
-3.462896203e-21
-3.821775188e-21
-2.992571803e-21
-3.616763904e-21
-2.579348847e-21
-3.382857631e-21
-2.219425415e-21
-3.134107262e-21
-1.907945585e-21
-2.881175537e-21
-1.639647038e-21
-2.631839696e-21
-1.409287708e-21
-2.391524973e-21
-1.211906085e-21
-2.163804268e-21
-1.042962922e-21
-1.950833702e-21
-8.984024979e-22
-1.753714743e-21
-7.746621431e-22
-1.572785191e-21
-6.686506204e-22
-1.407846922e-21
-5.777095311e-22
-1.258340328e-21
-4.995671033e-22
-1.12347539e-21
-4.32290255e-22
-1.00232839e-21
-3.742384353e-22
-8.939119648e-22
-3.240211287e-22
-7.97224788e-22
-2.804598765e-22
-7.112859261e-22
-2.425550167e-22
-6.351578223e-22
-2.094569709e-22
-5.679609517e-22
-1.804417011e-22
-5.08882473e-22
-1.548898714e-22
-4.571806324e-22
-1.322692243e-22
-4.121862361e-22
-1.121197003e-22
-3.733021649e-22
-9.404086598e-23
-3.400016544e-22
-7.768126131e-23
-3.118258666e-22
-6.272932519e-23
-2.883811352e-22
-4.890560255e-23
-2.693361638e-22
-3.595597687e-23
-2.544193701e-22
-2.364570689e-23
-2.434165189e-22
-1.175407429e-23
-2.361687382e-22
-2.325709847e-22
6.813045233e-09
-1.27684548e-09
-1.72676405e-08
-1.038734138e-08
-5.725189558e-08
-6.036835951e-08
-8.186530933e-08
-1.457520549e-07
-7.044404737e-08
-1.955182501e-07
-3.105201869e-08
-1.573919133e-07
-1.954724545e-11
-5.175965654e-08
-7.298035874e-18
-1.014639214e-09
-1.003599018e-20
-7.232788401e-23
-9.736329311e-21
-1.285418937e-21
-9.208875696e-21
-2.408407366e-21
-8.508941439e-21
-3.345233404e-21
-7.703848893e-21
-4.052789989e-21
-6.856337037e-21
-4.525831494e-21
-6.016622738e-21
-4.784760479e-21
-5.220205231e-21
-4.863722016e-21
-4.488993196e-21
-4.801428244e-21
-3.833933562e-21
-4.635206199e-21
-3.257973842e-21
-4.39778942e-21
-2.758735755e-21
-4.116061554e-21
-2.330651775e-21
-3.811006116e-21
-1.96653257e-21
-3.498295797e-21
-1.658636869e-21
-3.189145268e-21
-1.399350182e-21
-2.891204979e-21
-1.181577787e-21
-2.609380393e-21
-9.989410312e-22
-2.346528334e-21
-8.458456576e-22
-2.104020521e-21
-7.1747196e-22
-1.882183866e-21
-6.097210814e-22
-1.680635316e-21
-5.191400819e-22
-1.498530826e-21
-4.428399783e-22
-1.334746829e-21
-3.784151703e-22
-1.188009916e-21
-3.238688274e-22
-1.056987601e-21
-2.775463572e-22
-9.403502789e-22
-2.380775819e-22
-8.368122067e-22
-2.043273778e-22
-7.451573952e-22
-1.753540843e-22
-6.642548235e-22
-1.503747854e-22
-5.930662216e-22
-1.287365164e-22
-5.306487957e-22
-1.09892491e-22
-4.761546133e-22
-9.338252063e-23
-4.288278828e-22
-7.881689687e-23
-3.880010043e-22
-6.586311077e-23
-3.530900143e-22
-5.423487433e-23
-3.235898535e-22
-4.368299652e-23
-2.99069759e-22
-3.398773821e-23
-2.791689824e-22
-2.495233172e-23
-2.635929701e-22
-1.639740122e-23
-2.521100951e-22
-8.156059584e-24
-2.445489968e-22
-2.407965636e-22
8.648455624e-09
1.001634454e-09
-4.814200804e-09
3.075315015e-09
-4.181677131e-08
-2.3365789e-08
-7.859682985e-08
-1.089719963e-07
-8.273975588e-08
-1.913753241e-07
-4.750476251e-08
-1.926269066e-07
-3.780283264e-09
-9.548413574e-08
-7.176063129e-18
-4.794922449e-09
-1.125621255e-20
-1.283831753e-22
-1.085881479e-20
-1.68282185e-21
-1.0145486e-20
-3.121747091e-21
-9.216471488e-21
-4.274264703e-21
-8.176992034e-21
-5.092291842e-21
-7.115436404e-21
-5.587415051e-21
-6.095777567e-21
-5.80445271e-21
-5.158097903e-21
-5.801440476e-21
-4.322934693e-21
-5.636635582e-21
-3.596651126e-21
-5.36153914e-21
-2.976350851e-21
-5.018144224e-21
-2.453758661e-21
-4.638713326e-21
-2.017997523e-21
-4.246831779e-21
-1.657420295e-21
-3.858942375e-21
-1.360721113e-21
-3.4859185e-21
-1.117539887e-21
-3.134464824e-21
-9.187325955e-22
-2.808270735e-21
-7.564348604e-22
-2.508913405e-21
-6.24007096e-22
-2.236539756e-21
-5.159191968e-22
-1.990367218e-21
-4.276109805e-22
-1.769042807e-21
-3.553497233e-22
-1.570895017e-21
-2.960964087e-22
-1.394106569e-21
-2.473862118e-22
-1.236829861e-21
-2.072250808e-22
-1.097261631e-21
-1.740022088e-22
-9.736890253e-22
-1.464171187e-22
-8.64515971e-22
-1.234196176e-22
-7.682761926e-22
-1.04160771e-22
-6.836374095e-22
-8.795312209e-23
-6.093998733e-22
-7.423855708e-23
-5.444914463e-22
-6.256242418e-23
-4.879607339e-22
-5.255272384e-23
-4.389692915e-22
-4.390338283e-23
-3.967835932e-22
-3.636079723e-23
-3.607672058e-22
-2.971297698e-23
-3.303734563e-22
-2.378074784e-23
-3.05138766e-22
-1.841056833e-23
-2.846767538e-22
-1.346860036e-23
-2.68673163e-22
-8.835737621e-24
-2.568816348e-22
-4.403345398e-24
-2.49120337e-22
-2.452694435e-22
1.170435114e-08
2.194066076e-09
5.978823329e-09
8.800842813e-09
-2.168065317e-08
4.293687509e-09
-6.738519895e-08
-6.326745048e-08
-9.096070924e-08
-1.677998138e-07
-6.738904491e-08
-2.161985709e-07
-1.486719037e-08
-1.480059903e-07
1.17771461e-17
-1.966211281e-08
-1.283612014e-20
-2.862656289e-23
-1.229699182e-20
-2.221955317e-21
-1.129776229e-20
-4.120987569e-21
-1.003455581e-20
-5.537487967e-21
-8.672338669e-21
-6.454531389e-21
-7.332763727e-21
-6.927017927e-21
-6.093056267e-21
-7.044193574e-21
-4.993550296e-21
-6.900985256e-21
-4.048048092e-21
-6.582181926e-21
-3.253417462e-21
-6.156219159e-21
-2.597037856e-21
-5.674578375e-21
-2.061959325e-21
-5.173851456e-21
-1.630162493e-21
-4.678693155e-21
-1.284429956e-21
-4.204744282e-21
-1.009285898e-21
-3.76113663e-21
-7.913536985e-22
-3.352475664e-21
-6.193760136e-22
-2.980331492e-21
-4.840573112e-22
-2.644319466e-21
-3.778278035e-22
-2.34286076e-21
-2.945864373e-22
-2.073704062e-21
-2.294541122e-22
-1.834274433e-21
-1.785520444e-22
-1.621900045e-21
-1.388106912e-22
-1.433954375e-21
-1.078094223e-22
-1.267940907e-21
-8.36444998e-23
-1.12153948e-21
-6.482182732e-23
-9.926276016e-22
-5.017068252e-23
-8.792858197e-22
-3.877483898e-23
-7.797933624e-22
-2.991787683e-23
-6.926181414e-22
-2.303994059e-23
-6.164038429e-22
-1.770365449e-23
-5.499558489e-22
-1.356731602e-23
-4.922270909e-22
-1.036384488e-23
-4.423045021e-22
-7.884263367e-24
-3.993964536e-22
-5.964730954e-24
-3.62821375e-22
-4.47635571e-24
-3.319976449e-22
-3.317165171e-24
-3.064347651e-22
-2.405746273e-24
-2.857257953e-22
-1.67616345e-24
-2.695410012e-22
-1.073841003e-24
-2.576226645e-22
-5.521544992e-25
-2.497810017e-22
-2.45891147e-22
1.729647607e-08
3.025248936e-09
1.581267522e-08
1.028464367e-08
1.976400793e-09
1.812996195e-08
-4.476321376e-08
-1.65278359e-08
-8.950632858e-08
-1.230566989e-07
-8.677745949e-08
-2.1892744e-07
-3.33081294e-08
-2.014753203e-07
4.821989162e-17
-5.297024221e-08
-1.511590634e-20
-3.463035642e-22
-1.419565127e-20
-3.142215534e-21
-1.271417808e-20
-5.602471708e-21
-1.095187257e-20
-7.299810268e-21
-9.145270409e-21
-8.261155961e-21
-7.450413312e-21
-8.621902966e-21
-5.950271485e-21
-8.544368814e-21
-4.675088937e-21
-8.176206623e-21
-3.622342645e-21
-7.63497237e-21
-2.771959617e-21
-7.006651589e-21
-2.096434223e-21
-6.350158327e-21
-1.566879253e-21
-5.703466041e-21
-1.156259309e-21
-5.089377659e-21
-8.408453605e-22
-4.520227618e-21
-6.006328076e-22
-4.001423274e-21
-4.192076246e-22
-3.533979509e-21
-2.833561126e-22
-3.116266098e-21
-1.825873642e-22
-2.745175596e-21
-1.086582445e-22
-2.416881399e-21
-5.514345981e-23
-2.127314349e-21
-1.706660144e-23
-1.872450617e-21
9.40609957e-24
-1.648475732e-21
2.721437125e-23
-1.451869126e-21
3.860261039e-23
-1.279438949e-21
4.527697116e-23
-1.128326796e-21
4.85285539e-23
-9.959951157e-22
4.932943134e-23
-8.802054292e-22
4.840716025e-23
-7.789924462e-22
4.630239195e-23
-6.906371717e-22
4.341328621e-23
-6.136407995e-22
4.002966665e-23
-5.467003751e-22
3.635922908e-23
-4.886867013e-22
3.25476099e-23
-4.386246518e-22
2.869372192e-23
-3.95675874e-22
2.486145051e-23
-3.5912377e-22
2.108855783e-23
-3.283605951e-22
1.739345254e-23
-3.028764978e-22
1.37803358e-23
-2.822503304e-22
1.024312177e-23
-2.661420718e-22
6.768445862e-24
-2.542867248e-22
3.338009728e-24
-2.464895725e-22
-2.426227e-22
2.446499085e-08
3.431221338e-09
2.440384678e-08
1.034578776e-08
2.230518565e-08
2.022862312e-08
-1.1045704e-08
1.682305377e-08
-7.19119141e-08
-6.219048879e-08
-9.864512735e-08
-1.921942267e-07
-5.600325998e-08
-2.441171877e-07
6.741704634e-17
-1.089735022e-07
-1.813178176e-20
-7.311406321e-22
-1.665527238e-20
-4.618730059e-21
-1.441164887e-20
-7.846106168e-21
-1.191389266e-20
-9.797583277e-21
-9.506827413e-21
-1.066824363e-20
-7.373616587e-21
-1.075514174e-20
-5.582696702e-21
-1.033532212e-20
-4.134284492e-21
-9.624657662e-21
-2.994316436e-21
-8.77498459e-21
-2.115656275e-21
-7.885361164e-21
-1.449856017e-21
-7.016013158e-21
-9.528526065e-22
-6.200529081e-21
-5.871363588e-22
-5.455158484e-21
-3.220461363e-22
-4.785387246e-21
-1.331809278e-22
-4.190362592e-21
-1.478705425e-24
-3.665760412e-21
8.77534984e-23
-3.205581415e-21
1.457271596e-22
-2.80323666e-21
1.80928909e-22
-2.452174689e-21
1.997393321e-22
-2.146220297e-21
2.069258756e-22
-1.879736509e-21
2.060286553e-22
-1.647681521e-21
1.996588331e-22
-1.445605808e-21
1.897274449e-22
-1.269617389e-21
1.776198381e-22
-1.116332169e-21
1.643280622e-22
-9.828192972e-22
1.505510054e-22
-8.665471307e-22
1.367699253e-22
-7.653327475e-22
1.233052759e-22
-6.772963479e-22
1.103593541e-22
-6.008209674e-22
9.80482138e-23
-5.345174079e-22
8.642546843e-23
-4.771940315e-22
7.549996912e-23
-4.278309492e-22
6.524886326e-23
-3.855581043e-22
5.56271735e-23
-3.496367744e-22
4.657475988e-23
-3.194440521e-22
3.80213193e-23
-2.944599229e-22
2.988991884e-23
-2.742566094e-22
2.209944189e-23
-2.584899068e-22
1.456623749e-23
-2.468922839e-22
7.205199077e-24
-2.392675681e-22
-2.354870762e-22
3.194649344e-08
3.379370275e-09
3.212919167e-08
1.016308954e-08
3.456597643e-08
1.779183838e-08
2.299237605e-08
2.839665418e-08
-3.525109476e-08
-3.94701795e-09
-9.416631356e-08
-1.332790079e-07
-7.672573917e-08
-2.615577622e-07
5.605325232e-17
-1.856992413e-07
-2.247606471e-20
-1.490153359e-21
-1.988249428e-20
-7.212305639e-21
-1.63640957e-20
-1.136451569e-20
-1.278603414e-20
-1.337566165e-20
-9.595108829e-21
-1.385919135e-20
-6.954875634e-21
-1.339540289e-20
-4.872791301e-21
-1.241743988e-20
-3.285106814e-21
-1.121238099e-20
-2.104994304e-21
-9.955141273e-21
-1.246476373e-21
-8.743928521e-21
-6.34453323e-22
-7.628090793e-21
-2.07509545e-22
-6.627532502e-21
8.263906115e-23
-5.745371681e-21
2.730000766e-22
-4.975817682e-21
3.914512021e-22
-4.308887843e-21
4.587332007e-22
-3.733121109e-21
4.90130984e-22
-3.237062331e-21
4.968199845e-22
-2.810013081e-21
4.869114694e-22
-2.442357735e-21
4.662483152e-22
-2.125652687e-21
4.390030997e-22
-1.852590663e-21
4.081238189e-22
-1.616905271e-21
3.756641649e-22
-1.41325268e-21
3.430273122e-22
-1.237090387e-21
3.111453625e-22
-1.084563222e-21
2.806111385e-22
-9.524010542e-22
2.517747835e-22
-8.378295582e-22
2.248144062e-22
-7.384937761e-22
1.997875994e-22
-6.523933913e-22
1.766688693e-22
-5.77828352e-22
1.553766874e-22
-5.133534244e-22
1.357928992e-22
-4.577403443e-22
1.17776506e-22
-4.09946378e-22
1.011733064e-22
-3.690882664e-22
8.58224947e-23
-3.344206824e-22
7.156102702e-23
-3.053184806e-22
5.82263531e-23
-2.812621402e-22
4.565795848e-23
-2.618259196e-22
3.369804522e-23
-2.466683308e-22
2.219159646e-23
-2.355246238e-22
1.098600946e-23
-2.282010401e-22
-2.245706534e-22
3.903486528e-08
3.113698989e-09
3.969723128e-08
9.500723547e-09
4.207637787e-08
1.541269181e-08
4.597453053e-08
2.449850152e-08
1.30228335e-08
2.900467908e-08
-6.643722645e-08
-5.381894791e-08
-8.782637996e-08
-2.401686088e-07
1.213628807e-17
-2.735256212e-07
-2.900767911e-20
-3.593906371e-21
-2.403654002e-20
-1.218344989e-20
-1.83782977e-20
-1.702276896e-20
-1.327246049e-20
-1.848151567e-20
-9.133484832e-21
-1.799818944e-20
-5.978348114e-21
-1.655056757e-20
-3.668607453e-21
-1.472721398e-20
-2.028358624e-21
-1.285266866e-20
-8.940286876e-22
-1.108951539e-20
-1.307384597e-22
-9.507268184e-21
3.660891691e-22
-8.124973017e-21
6.746800831e-22
-6.936183071e-21
8.522428699e-22
-5.922999071e-21
9.399871481e-22
-5.063631395e-21
9.672751595e-22
-4.336249995e-21
9.548454325e-22
-3.720770096e-21
9.172282825e-22
-3.199528329e-21
8.645175269e-22
-2.757389764e-21
8.036530357e-22
-2.381584822e-21
7.393416574e-22
-2.061436872e-21
6.74715199e-22
-1.788063593e-21
6.117991137e-22
-1.554092237e-21
5.51845726e-22
-1.353405838e-21
4.955708205e-22
-1.180925352e-21
4.433213967e-22
-1.032426823e-21
3.951944046e-22
-9.043900644e-22
3.511205632e-22
-7.938745208e-22
3.109232879e-22
-6.984179287e-22
2.743598619e-22
-6.159538379e-22
2.411499357e-22
-5.447445628e-22
2.10994979e-22
-4.833266887e-22
1.835912799e-22
-4.30466769e-22
1.586383427e-22
-3.851252859e-22
1.358440147e-22
-3.46427323e-22
1.14927293e-22
-3.136387035e-22
9.561949524e-23
-2.86146602e-22
7.766428037e-23
-2.634438395e-22
6.081687044e-23
-2.451162374e-22
4.484272061e-23
-2.308325411e-22
2.951581451e-23
-2.20336529e-22
1.461671011e-23
-2.134410173e-22
-2.100235398e-22
4.537319387e-08
2.87231235e-09
4.628432343e-08
8.589594003e-09
4.729422004e-08
1.440279521e-08
5.241213857e-08
1.938058299e-08
4.835720846e-08
3.305960919e-08
-1.748492002e-08
1.202318055e-08
-8.328513934e-08
-1.743683895e-07
-3.96479182e-17
-3.568107605e-07
-3.886107504e-20
-1.10397232e-20
-2.888436015e-20
-2.216016994e-20
-1.984422584e-20
-2.606291422e-20
-1.279402205e-20
-2.553173627e-20
-7.688807436e-21
-2.310342648e-20
-4.156619078e-21
-2.008278389e-20
-1.794876486e-21
-1.708899001e-20
-2.655539033e-22
-1.43820301e-20
6.881226533e-22
-1.204323614e-20
1.251588534e-21
-1.007078351e-20
1.554968353e-21
-8.428407441e-21
1.687972863e-21
-7.069247246e-21
1.711719586e-21
-5.946810408e-21
1.667468898e-21
-5.019450154e-21
1.582843324e-21
-4.251698574e-21
1.476162836e-21
-3.614168336e-21
1.359430667e-21
-3.082879322e-21
1.240375831e-21
-2.638422381e-21
1.12384538e-21
-2.265145964e-21
1.012751787e-21
-1.950438858e-21
9.087171292e-22
-1.68412834e-21
8.125108989e-22
-1.457989074e-21
7.243473237e-22
-1.265348826e-21
6.440869449e-22
-1.100774863e-21
5.713728524e-22