/*--------------------------------*- C++ -*----------------------------------*\
  =========                 |
  \\      /  F ield         | OpenFOAM: The Open Source CFD Toolbox
   \\    /   O peration     | Website:  https://openfoam.org
    \\  /    A nd           | Version:  6
     \\/     M anipulation  |
\*---------------------------------------------------------------------------*/
FoamFile
{
    version     2.0;
    format      ascii;
    class       volScalarField;
    location    "0.07";
    object      pVap;
}
// * * * * * * * * * * * * * * * * * * * * * * * * * * * * * * * * * * * * * //

dimensions      [1 -1 -2 0 0 0 0];

internalField   nonuniform List<scalar> 
2500
(
55293.42213
55293.26623
55293.07443
55292.92927
55292.82376
55292.73843
55292.66375
55292.62623
1.074655695
1.074405044
1.074304339
1.074268863
1.074257436
1.07425396
1.07425293
1.074252625
1.074252532
1.074252503
1.074252493
1.07425249
1.074252489
1.074252489
1.074252489
1.074252489
1.074252489
1.074252489
1.074252489
1.074252489
1.074252489
1.074252489
1.074252489
1.074252489
1.074252489
1.074252489
1.074252489
1.074252489
1.074252489
1.074252489
1.074252489
1.074252489
1.074252489
1.074252489
1.074252489
1.074252489
1.074252489
1.074252489
1.074252489
1.074252489
1.074252489
1.074252489
55294.32527
55294.13076
55293.8162
55293.48685
55293.22418
55293.0008
55292.79605
55292.61095
1.075455149
1.074716659
1.074413167
1.074304282
1.074268552
1.074257432
1.074254038
1.07425299
1.074252656
1.074252545
1.074252508
1.074252495
1.074252491
1.074252489
1.074252489
1.074252489
1.074252489
1.074252489
1.074252489
1.074252489
1.074252489
1.074252489
1.074252489
1.074252489
1.074252489
1.074252489
1.074252489
1.074252489
1.074252489
1.074252489
1.074252489
1.074252489
1.074252489
1.074252489
1.074252489
1.074252489
1.074252489
1.074252489
1.074252489
1.074252489
1.074252489
1.074252489
55294.81767
55294.64226
55294.32995
55293.94319
55293.5542
55293.222
55292.91044
55292.60923
1.076256126
1.075052222
1.074539287
1.0743489
1.07428405
1.074262894
1.074256021
1.074253727
1.074252931
1.074252646
1.074252544
1.074252507
1.074252495
1.074252491
1.074252489
1.074252489
1.074252489
1.074252489
1.074252489
1.074252489
1.074252489
1.074252489
1.074252489
1.074252489
1.074252489
1.074252489
1.074252489
1.074252489
1.074252489
1.074252489
1.074252489
1.074252489
1.074252489
1.074252489
1.074252489
1.074252489
1.074252489
1.074252489
1.074252489
1.074252489
1.074252489
1.074252489
55295.13553
55294.98669
55294.70208
55294.30633
55293.85078
55293.42572
55293.01815
55292.61071
1.077102842
1.075440909
1.074701818
1.07441391
1.074309959
1.074273389
1.074260326
1.074255484
1.07425363
1.074252913
1.074252641
1.074252541
1.074252506
1.074252494
1.07425249
1.074252489
1.074252489
1.074252489
1.074252489
1.074252489
1.074252489
1.074252489
1.074252489
1.074252489
1.074252489
1.074252489
1.074252489
1.074252489
1.074252489
1.074252489
1.074252489
1.074252489
1.074252489
1.074252489
1.074252489
1.074252489
1.074252489
1.074252489
1.074252489
1.074252489
1.074252489
1.074252489
55295.38152
55295.26291
55295.01917
55294.64345
55294.15695
55293.6396
55293.13357
55292.62398
1.078089063
1.075939958
1.074938922
1.074523234
1.074360039
1.074296214
1.074270536
1.074259893
1.074255445
1.074253621
1.074252901
1.074252631
1.074252535
1.074252503
1.074252493
1.07425249
1.074252489
1.074252489
1.074252489
1.074252489
1.074252489
1.074252489
1.074252489
1.074252489
1.074252489
1.074252489
1.074252489
1.074252489
1.074252489
1.074252489
1.074252489
1.074252489
1.074252489
1.074252489
1.074252489
1.074252489
1.074252489
1.074252489
1.074252489
1.074252489
1.074252489
1.074252489
55295.59375
55295.50857
55295.31453
55294.98139
55294.48917
55293.88615
55293.26801
55292.64052
1.079397865
1.076675792
1.075337989
1.07473321
1.074467489
1.074349267
1.074295526
1.074271022
1.074260108
1.074255456
1.074253579
1.074252867
1.074252613
1.074252527
1.0742525
1.074252492
1.07425249
1.074252489
1.074252489
1.074252489
1.074252489
1.074252489
1.074252489
1.074252489
1.074252489
1.074252489
1.074252489
1.074252489
1.074252489
1.074252489
1.074252489
1.074252489
1.074252489
1.074252489
1.074252489
1.074252489
1.074252489
1.074252489
1.074252489
1.074252489
1.074252489
1.074252489
55295.78326
55295.73292
55295.59264
55295.31416
55294.84717
55294.18407
55293.43003
55292.65139
1.081416306
1.077940462
1.076106144
1.075178507
1.074712002
1.0744756
1.074356643
1.074298642
1.074271765
1.074260057
1.074255281
1.074253458
1.074252806
1.074252587
1.074252518
1.074252497
1.074252491
1.074252489
1.074252489
1.074252489
1.074252489
1.074252489
1.074252489
1.074252489
1.074252489
1.074252489
1.074252489
1.074252489
1.074252489
1.074252489
1.074252489
1.074252489
1.074252489
1.074252489
1.074252489
1.074252489
1.074252489
1.074252489
1.074252489
1.074252489
1.074252489
1.074252489
55295.95366
55295.93716
55295.85198
55295.63358
55295.20813
55294.51716
55293.62013
55292.66495
1.084980987
1.08040699
1.077727646
1.076173903
1.075279154
1.074775014
1.074503149
1.074365193
1.074299901
1.074271158
1.074259382
1.074254881
1.074253271
1.07425273
1.074252559
1.074252508
1.074252494
1.07425249
1.074252489
1.074252489
1.074252489
1.074252489
1.074252489
1.074252489
1.074252489
1.074252489
1.074252489
1.074252489
1.074252489
1.074252489
1.074252489
1.074252489
1.074252489
1.074252489
1.074252489
1.074252489
1.074252489
1.074252489
1.074252489
1.074252489
1.074252489
1.074252489
55296.11085
55296.12339
55296.09299
55295.94018
55295.56708
55294.87392
55293.84501
55292.6844
1.09196765
1.085603784
1.081301819
1.078428821
1.076583592
1.075468686
1.074843418
1.074519732
1.074365126
1.074296835
1.074268843
1.074258154
1.074254338
1.074253059
1.074252655
1.074252535
1.074252501
1.074252492
1.07425249
1.074252489
1.074252489
1.074252489
1.074252489
1.074252489
1.074252489
1.074252489
1.074252489
1.074252489
1.074252489
1.074252489
1.074252489
1.074252489
1.074252489
1.074252489
1.074252489
1.074252489
1.074252489
1.074252489
1.074252489
1.074252489
1.074252489
1.074252489
55296.26559
55296.29805
55296.3194
55296.23954
55295.93685
55295.26903
55294.13617
55292.71343
1.106594369
1.096922926
1.089237471
1.083476086
1.079509515
1.077022932
1.075603775
1.07486389
1.07450986
1.074353609
1.07428969
1.074265344
1.074256674
1.074253776
1.074252864
1.074252593
1.074252516
1.074252496
1.07425249
1.074252489
1.074252489
1.074252489
1.074252489
1.074252489
1.074252489
1.074252489
1.074252489
1.074252489
1.074252489
1.074252489
1.074252489
1.074252489
1.074252489
1.074252489
1.074252489
1.074252489
1.074252489
1.074252489
1.074252489
1.074252489
1.074252489
1.074252489
55296.42832
55296.4709
55296.53693
55296.53564
55296.32377
55295.71823
55294.52126
55292.7744
1.138132776
1.121704653
1.106631097
1.094487682
1.085852064
1.080370011
1.077231226
1.07559647
1.074816433
1.07447334
1.074333483
1.074280395
1.074261549
1.074255268
1.074253297
1.074252712
1.074252547
1.074252503
1.074252492
1.07425249
1.074252489
1.074252489
1.074252489
1.074252489
1.074252489
1.074252489
1.074252489
1.074252489
1.074252489
1.074252489
1.074252489
1.074252489
1.074252489
1.074252489
1.074252489
1.074252489
1.074252489
1.074252489
1.074252489
1.074252489
1.074252489
1.074252489
55296.60349
55296.65204
55296.75129
55296.83021
55296.7285
55296.22473
55295.01839
55293.95991
1.207255067
1.175698451
1.143989153
1.117774231
1.099081606
1.087273357
1.080557838
1.077083154
1.075434917
1.074713689
1.074421021
1.074310368
1.074271226
1.074258222
1.074254151
1.074252947
1.074252609
1.074252519
1.074252496
1.07425249
1.074252489
1.074252489
1.074252489
1.074252489
1.074252489
1.074252489
1.074252489
1.074252489
1.074252489
1.074252489
1.074252489
1.074252489
1.074252489
1.074252489
1.074252489
1.074252489
1.074252489
1.074252489
1.074252489
1.074252489
1.074252489
1.074252489
55296.79228
55296.84638
55296.96648
55297.12196
55297.14912
55296.78984
55295.64332
55295.72636
1.36201242
1.293259899
1.222797519
1.165528981
1.125610059
1.100886797
1.087038502
1.079953481
1.076620843
1.075172034
1.0745872
1.07436705
1.074289465
1.074263773
1.074255753
1.074253386
1.074252724
1.074252547
1.074252503
1.074252492
1.07425249
1.074252489
1.074252489
1.074252489
1.074252489
1.074252489
1.074252489
1.074252489
1.074252489
1.074252489
1.074252489
1.074252489
1.074252489
1.074252489
1.074252489
1.074252489
1.074252489
1.074252489
1.074252489
1.074252489
1.074252489
1.074252489
55296.99304
55297.05035
55297.18581
55297.40564
55297.57996
55297.41695
55296.42475
55293.7716
1.724588396
1.553790713
1.388018745
1.261086349
1.176866017
1.126552547
1.099055588
1.085216131
1.078777874
1.076000716
1.074886224
1.074468644
1.074322046
1.074273661
1.074258599
1.074254165
1.074252927
1.074252598
1.074252515
1.074252495
1.07425249
1.074252489
1.074252489
1.074252489
1.074252489
1.074252489
1.074252489
1.074252489
1.074252489
1.074252489
1.074252489
1.074252489
1.074252489
1.074252489
1.074252489
1.074252489
1.074252489
1.074252489
1.074252489
1.074252489
1.074252489
1.074252489
55297.20693
55297.26701
55297.41258
55297.67538
55298.00595
55298.1006
55297.39005
55294.45448
2.656218144
2.162053006
1.740023512
1.449999907
1.272828752
1.172886493
1.120252943
1.094364467
1.082492005
1.077418168
1.075395163
1.074640869
1.074377095
1.074290319
1.074263382
1.074255471
1.074253266
1.074252682
1.074252535
1.074252499
1.074252491
1.074252489
1.074252489
1.074252489
1.074252489
1.074252489
1.074252489
1.074252489
1.074252489
1.074252489
1.074252489
1.074252489
1.074252489
1.074252489
1.074252489
1.074252489
1.074252489
1.074252489
1.074252489
1.074252489
1.074252489
1.074252489
55297.43539
55297.49898
55297.65573
55297.94633
55298.39677
55298.81558
55298.53885
55295.80745
5.44857776
3.728453797
2.526128348
1.825786334
1.44849072
1.253234798
1.155822284
1.109420284
1.088533594
1.079706684
1.076212559
1.07491637
1.074464868
1.074316806
1.074270969
1.074257538
1.074253803
1.074252815
1.074252566
1.074252506
1.074252493
1.07425249
1.074252489
1.074252489
1.074252489
1.074252489
1.074252489
1.074252489
1.074252489
1.074252489
1.074252489
1.074252489
1.074252489
1.074252489
1.074252489
1.074252489
1.074252489
1.074252489
1.074252489
1.074252489
1.074252489
1.074252489
55297.67902
55297.74798
55297.92113
55298.24346
55298.77795
55299.51092
55299.8205
55297.81671
15.60992687
8.345768667
4.422570306
2.593185302
1.766264564
1.38762497
1.212618169
1.132842048
1.097795998
1.083185151
1.077448054
1.075331113
1.074596583
1.074356449
1.074282299
1.074260619
1.074254602
1.074253013
1.074252613
1.074252517
1.074252495
1.07425249
1.074252489
1.074252489
1.074252489
1.074252489
1.074252489
1.074252489
1.074252489
1.074252489
1.074252489
1.074252489
1.074252489
1.074252489
1.074252489
1.074252489
1.074252489
1.074252489
1.074252489
1.074252489
1.074252489
1.074252489
55297.93609
55298.01344
55298.21054
55298.58114
55299.19592
55300.13422
55301.1353
55300.30136
58.60152663
23.78643894
9.411771125
4.222559869
2.339204461
1.605154895
1.298899995
1.167213469
1.11114142
1.088146943
1.079199858
1.075916797
1.074782019
1.074412122
1.074298177
1.074264928
1.074255717
1.074253289
1.074252679
1.074252532
1.074252498
1.074252491
1.074252489
1.074252489
1.074252489
1.074252489
1.074252489
1.074252489
1.074252489
1.074252489
1.074252489
1.074252489
1.074252489
1.074252489
1.074252489
1.074252489
1.074252489
1.074252489
1.074252489
1.074252489
1.074252489
1.074252489
55298.20145
55298.29039
55298.51915
55298.95628
55299.68323
55300.81621
55302.35435
55302.8803
240.6125936
77.7773743
23.26978389
7.793480657
3.368757199
1.945777894
1.423341516
1.214637542
1.129142291
1.094762022
1.081520322
1.076689456
1.075025941
1.074485185
1.074318974
1.074270564
1.074257174
1.074253649
1.074252763
1.074252551
1.074252502
1.074252492
1.074252489
1.074252489
1.074252489
1.074252489
1.074252489
1.074252489
1.074252489
1.074252489
1.074252489
1.074252489
1.074252489
1.074252489
1.074252489
1.074252489
1.074252489
1.074252489
1.074252489
1.074252489
1.074252489
1.074252489
55298.46673
55298.56993
55298.83722
55299.35379
55300.22032
55301.54241
55303.41792
55305.18362
880.2145172
250.767194
60.90402849
15.58763027
5.185369254
2.457799387
1.592716436
1.275806597
1.151743502
1.102958293
1.084375716
1.077636401
1.075324065
1.074574295
1.074344294
1.074277415
1.074258942
1.074254085
1.074252866
1.074252574
1.074252507
1.074252493
1.07425249
1.074252489
1.074252489
1.074252489
1.074252489
1.074252489
1.074252489
1.074252489
1.074252489
1.074252489
1.074252489
1.074252489
1.074252489
1.074252489
1.074252489
1.074252489
1.074252489
1.074252489
1.074252489
1.074252489
55298.7207
55298.84003
55299.15124
55299.75746
55300.78561
55302.34565
55304.51392
55307.01092
2522.635856
699.8164717
151.600127
31.53209286
8.231043345
3.18325745
1.807628374
1.348840011
1.17792481
1.112316753
1.087612838
1.078705735
1.07565987
1.074674482
1.074372719
1.074285096
1.074260922
1.074254573
1.074252981
1.0742526
1.074252513
1.074252494
1.07425249
1.074252489
1.074252489
1.074252489
1.074252489
1.074252489
1.074252489
1.074252489
1.074252489
1.074252489
1.074252489
1.074252489
1.074252489
1.074252489
1.074252489
1.074252489
1.074252489
1.074252489
1.074252489
1.074252489
55298.94984
55299.08596
55299.44294
55300.14226
55301.3326
55303.13127
55305.49539
55308.34347
5491.929208
1577.777899
329.7290612
59.98076568
12.85122318
4.12240349
2.056488638
1.428225529
1.205500884
1.122029287
1.090948945
1.079803732
1.076003902
1.074776958
1.074401756
1.074292934
1.074262941
1.074255069
1.074253099
1.074252627
1.074252519
1.074252495
1.07425249
1.074252489
1.074252489
1.074252489
1.074252489
1.074252489
1.074252489
1.074252489
1.074252489
1.074252489
1.074252489
1.074252489
1.074252489
1.074252489
1.074252489
1.074252489
1.074252489
1.074252489
1.074252489
1.074252489
55299.13958
55299.29147
55299.69124
55300.47729
55301.81277
55303.81197
55306.33265
55309.2542
9334.866413
2834.874083
597.7595495
101.1599461
18.80826505
5.182231056
2.310299018
1.504523092
1.231226453
1.130965664
1.09399888
1.080804322
1.076316825
1.074870045
1.074428106
1.074300041
1.07426477
1.074255519
1.074253205
1.074252651
1.074252524
1.074252496
1.07425249
1.074252489
1.074252489
1.074252489
1.074252489
1.074252489
1.074252489
1.074252489
1.074252489
1.074252489
1.074252489
1.074252489
1.074252489
1.074252489
1.074252489
1.074252489
1.074252489
1.074252489
1.074252489
1.074252489
55299.27599
55299.4406
55299.87494
55300.73159
55302.1849
55304.33657
55306.98215
55309.81748
12919.86945
4118.443698
888.4148233
145.627109
24.79468579
6.147628045
2.523667614
1.565618225
1.251324535
1.137868156
1.096342491
1.081571248
1.076556328
1.074941223
1.074448239
1.074305467
1.074266166
1.074255863
1.074253285
1.074252669
1.074252528
1.074252497
1.07425249
1.074252489
1.074252489
1.074252489
1.074252489
1.074252489
1.074252489
1.074252489
1.074252489
1.074252489
1.074252489
1.074252489
1.074252489
1.074252489
1.074252489
1.074252489
1.074252489
1.074252489
1.074252489
1.074252489
55299.34762
55299.51962
55299.97408
55300.87234
55302.3966
55304.63477
55307.38116
55310.08923
15066.59249
4934.042548
1081.648908
175.4164552
28.65814866
6.734797846
2.646953039
1.599810664
1.262390565
1.141640188
1.097618883
1.081988258
1.076686438
1.074979868
1.074459165
1.074308411
1.074266923
1.074256049
1.074253329
1.074252679
1.07425253
1.074252497
1.074252491
1.074252489
1.074252489
1.074252489
1.074252489
1.074252489
1.074252489
1.074252489
1.074252489
1.074252489
1.074252489
1.074252489
1.074252489
1.074252489
1.074252489
1.074252489
1.074252489
1.074252489
1.074252489
1.074252489
55299.34762
55299.51962
55299.97408
55300.87234
55302.3966
55304.63477
55307.38116
55310.08958
15066.59261
4934.042487
1081.648895
175.4164533
28.65814845
6.734797818
2.646953033
1.599810662
1.262390565
1.141640188
1.097618883
1.081988258
1.076686438
1.074979868
1.074459165
1.074308411
1.074266923
1.074256049
1.074253329
1.074252679
1.07425253
1.074252497
1.074252491
1.074252489
1.074252489
1.074252489
1.074252489
1.074252489
1.074252489
1.074252489
1.074252489
1.074252489
1.074252489
1.074252489
1.074252489
1.074252489
1.074252489
1.074252489
1.074252489
1.074252489
1.074252489
1.074252489
55299.27599
55299.4406
55299.87494
55300.73159
55302.1849
55304.33657
55306.98215
55309.81838
12919.87003
4118.44355
888.4147933
145.627105
24.79468533
6.147627982
2.523667602
1.565618222
1.251324535
1.137868155
1.096342491
1.081571248
1.076556328
1.074941223
1.074448239
1.074305467
1.074266166
1.074255863
1.074253285
1.074252669
1.074252528
1.074252497
1.07425249
1.074252489
1.074252489
1.074252489
1.074252489
1.074252489
1.074252489
1.074252489
1.074252489
1.074252489
1.074252489
1.074252489
1.074252489
1.074252489
1.074252489
1.074252489
1.074252489
1.074252489
1.074252489
1.074252489
55299.13958
55299.29147
55299.69124
55300.47729
55301.81277
55303.81197
55306.33265
55309.25558
9334.867223
2834.873947
597.7595253
101.1599431
18.8082647
5.182231005
2.310299008
1.50452309
1.231226452
1.130965663
1.093998879
1.080804322
1.076316825
1.074870045
1.074428106
1.074300041
1.07426477
1.074255519
1.074253205
1.074252651
1.074252524
1.074252496
1.07425249
1.074252489
1.074252489
1.074252489
1.074252489
1.074252489
1.074252489
1.074252489
1.074252489
1.074252489
1.074252489
1.074252489
1.074252489
1.074252489
1.074252489
1.074252489
1.074252489
1.074252489
1.074252489
1.074252489
55298.94984
55299.08596
55299.44294
55300.14226
55301.3326
55303.13127
55305.49539
55308.34512
5491.929661
1577.777854
329.729055
59.98076506
12.85122312
4.122403482
2.056488637
1.428225528
1.205500884
1.122029287
1.090948945
1.079803732
1.076003902
1.074776958
1.074401756
1.074292934
1.074262941
1.074255069
1.074253099
1.074252627
1.074252519
1.074252495
1.07425249
1.074252489
1.074252489
1.074252489
1.074252489
1.074252489
1.074252489
1.074252489
1.074252489
1.074252489
1.074252489
1.074252489
1.074252489
1.074252489
1.074252489
1.074252489
1.074252489
1.074252489
1.074252489
1.074252489
55298.7207
55298.84003
55299.15124
55299.75746
55300.78561
55302.34565
55304.51392
55307.01241
2522.635816
699.8165007
151.6001327
31.53209378
8.231043501
3.183257483
1.807628382
1.348840014
1.177924811
1.112316753
1.087612838
1.078705735
1.07565987
1.074674482
1.074372719
1.074285096
1.074260922
1.074254573
1.074252981
1.0742526
1.074252513
1.074252494
1.07425249
1.074252489
1.074252489
1.074252489
1.074252489
1.074252489
1.074252489
1.074252489
1.074252489
1.074252489
1.074252489
1.074252489
1.074252489
1.074252489
1.074252489
1.074252489
1.074252489
1.074252489
1.074252489
1.074252489
55298.46673
55298.56993
55298.83722
55299.35379
55300.22032
55301.54241
55303.41792
55305.18489
880.2143501
250.7672312
60.90403508
15.58763138
5.185369467
2.457799437
1.592716451
1.275806601
1.151743504
1.102958293
1.084375716
1.077636401
1.075324065
1.074574295
1.074344294
1.074277415
1.074258942
1.074254085
1.074252866
1.074252574
1.074252507
1.074252493
1.07425249
1.074252489
1.074252489
1.074252489
1.074252489
1.074252489
1.074252489
1.074252489
1.074252489
1.074252489
1.074252489
1.074252489
1.074252489
1.074252489
1.074252489
1.074252489
1.074252489
1.074252489
1.074252489
1.074252489
55298.20145
55298.29039
55298.51914
55298.95628
55299.68323
55300.81621
55302.35435
55302.87947
240.6125832
77.77739094
23.26978733
7.793481375
3.36875737
1.945777942
1.423341532
1.214637548
1.129142293
1.094762022
1.081520322
1.076689456
1.075025941
1.074485185
1.074318974
1.074270564
1.074257174
1.074253649
1.074252763
1.074252551
1.074252502
1.074252492
1.074252489
1.074252489
1.074252489
1.074252489
1.074252489
1.074252489
1.074252489
1.074252489
1.074252489
1.074252489
1.074252489
1.074252489
1.074252489
1.074252489
1.074252489
1.074252489
1.074252489
1.074252489
1.074252489
1.074252489
55297.93609
55298.01344
55298.21054
55298.58114
55299.19592
55300.13422
55301.1353
55300.29898
58.60153767
23.78644374
9.411772435
4.222560227
2.339204568
1.605154931
1.298900008
1.167213473
1.111141422
1.088146944
1.079199858
1.075916797
1.074782019
1.074412122
1.074298177
1.074264928
1.074255717
1.074253289
1.074252679
1.074252532
1.074252498
1.074252491
1.074252489
1.074252489
1.074252489
1.074252489
1.074252489
1.074252489
1.074252489
1.074252489
1.074252489
1.074252489
1.074252489
1.074252489
1.074252489
1.074252489
1.074252489
1.074252489
1.074252489
1.074252489
1.074252489
1.074252489
55297.67902
55297.74798
55297.92113
55298.24346
55298.77795
55299.51092
55299.82049
55297.81552
15.60992966
8.345769868
4.422570751
2.593185461
1.766264623
1.387624992
1.212618178
1.132842052
1.097796
1.083185151
1.077448054
1.075331113
1.074596583
1.074356449
1.074282299
1.074260619
1.074254602
1.074253013
1.074252613
1.074252517
1.074252495
1.07425249
1.074252489
1.074252489
1.074252489
1.074252489
1.074252489
1.074252489
1.074252489
1.074252489
1.074252489
1.074252489
1.074252489
1.074252489
1.074252489
1.074252489
1.074252489
1.074252489
1.074252489
1.074252489
1.074252489
1.074252489
55297.43539
55297.49898
55297.65573
55297.94633
55298.39676
55298.81558
55298.53885
55295.81025
5.448578302
3.728454102
2.526128497
1.8257864
1.448490749
1.25323481
1.155822289
1.109420286
1.088533595
1.079706685
1.076212559
1.07491637
1.074464868
1.074316806
1.074270969
1.074257538
1.074253803
1.074252815
1.074252566
1.074252506
1.074252493
1.07425249
1.074252489
1.074252489
1.074252489
1.074252489
1.074252489
1.074252489
1.074252489
1.074252489
1.074252489
1.074252489
1.074252489
1.074252489
1.074252489
1.074252489
1.074252489
1.074252489
1.074252489
1.074252489
1.074252489
1.074252489
55297.20692
55297.26701
55297.41258
55297.67538
55298.00595
55298.1006
55297.39005
55294.45563
2.656218259
2.162053085
1.740023561
1.449999933
1.272828765
1.172886499
1.120252945
1.094364468
1.082492005
1.077418168
1.075395163
1.074640869
1.074377095
1.074290319
1.074263382
1.074255471
1.074253266
1.074252682
1.074252535
1.074252499
1.074252491
1.074252489
1.074252489
1.074252489
1.074252489
1.074252489
1.074252489
1.074252489
1.074252489
1.074252489
1.074252489
1.074252489
1.074252489
1.074252489
1.074252489
1.074252489
1.074252489
1.074252489
1.074252489
1.074252489
1.074252489
1.074252489
55296.99304
55297.05035
55297.18581
55297.40563
55297.57996
55297.41695
55296.42475
55293.75807
1.724588413
1.553790731
1.388018759
1.261086358
1.176866022
1.126552549
1.099055589
1.085216131
1.078777874
1.076000717
1.074886224
1.074468644
1.074322046
1.074273661
1.074258599
1.074254165
1.074252927
1.074252598
1.074252515
1.074252495
1.07425249
1.074252489
1.074252489
1.074252489
1.074252489
1.074252489
1.074252489
1.074252489
1.074252489
1.074252489
1.074252489
1.074252489
1.074252489
1.074252489
1.074252489
1.074252489
1.074252489
1.074252489
1.074252489
1.074252489
1.074252489
1.074252489
55296.79228
55296.84637
55296.96648
55297.12196
55297.14912
55296.78984
55295.64332
55295.60782
1.36201242
1.293259899
1.222797521
1.165528983
1.12561006
1.100886797
1.087038503
1.079953481
1.076620843
1.075172034
1.0745872
1.07436705
1.074289465
1.074263773
1.074255753
1.074253386
1.074252724
1.074252547
1.074252503
1.074252492
1.07425249
1.074252489
1.074252489
1.074252489
1.074252489
1.074252489
1.074252489
1.074252489
1.074252489
1.074252489
1.074252489
1.074252489
1.074252489
1.074252489
1.074252489
1.074252489
1.074252489
1.074252489
1.074252489
1.074252489
1.074252489
1.074252489
55296.60349
55296.65204
55296.75129
55296.83021
55296.72849
55296.22472
55295.01839
55293.91166
1.207255078
1.175698445
1.143989151
1.11777423
1.099081606
1.087273357
1.080557838
1.077083154
1.075434917
1.074713689
1.074421021
1.074310368
1.074271226
1.074258222
1.074254151
1.074252947
1.074252609
1.074252519
1.074252496
1.07425249
1.074252489
1.074252489
1.074252489
1.074252489
1.074252489
1.074252489
1.074252489
1.074252489
1.074252489
1.074252489
1.074252489
1.074252489
1.074252489
1.074252489
1.074252489
1.074252489
1.074252489
1.074252489
1.074252489
1.074252489
1.074252489
1.074252489
55296.42832
55296.47089
55296.53693
55296.53564
55296.32376
55295.71823
55294.52126
55292.79268
1.138132784
1.121704646
1.106631094
1.09448768
1.085852064
1.080370011
1.077231226
1.07559647
1.074816433
1.07447334
1.074333483
1.074280395
1.074261549
1.074255268
1.074253297
1.074252712
1.074252547
1.074252503
1.074252492
1.07425249
1.074252489
1.074252489
1.074252489
1.074252489
1.074252489
1.074252489
1.074252489
1.074252489
1.074252489
1.074252489
1.074252489
1.074252489
1.074252489
1.074252489
1.074252489
1.074252489
1.074252489
1.074252489
1.074252489
1.074252489
1.074252489
1.074252489
55296.26558
55296.29805
55296.3194
55296.23954
55295.93685
55295.26903
55294.13617
55292.72093
1.10659436
1.09692292
1.089237468
1.083476085
1.079509514
1.077022932
1.075603775
1.07486389
1.07450986
1.074353609
1.07428969
1.074265344
1.074256674
1.074253776
1.074252864
1.074252593
1.074252516
1.074252496
1.07425249
1.074252489
1.074252489
1.074252489
1.074252489
1.074252489
1.074252489
1.074252489
1.074252489
1.074252489
1.074252489
1.074252489
1.074252489
1.074252489
1.074252489
1.074252489
1.074252489
1.074252489
1.074252489
1.074252489
1.074252489
1.074252489
1.074252489
1.074252489
55296.11085
55296.12339
55296.09299
55295.94018
55295.56708
55294.87391
55293.84501
55292.68425
1.091967639
1.085603779
1.081301816
1.07842882
1.076583591
1.075468686
1.074843418
1.074519732
1.074365126
1.074296835
1.074268843
1.074258154
1.074254338
1.074253059
1.074252655
1.074252535
1.074252501
1.074252492
1.07425249
1.074252489
1.074252489
1.074252489
1.074252489
1.074252489
1.074252489
1.074252489
1.074252489
1.074252489
1.074252489
1.074252489
1.074252489
1.074252489
1.074252489
1.074252489
1.074252489
1.074252489
1.074252489
1.074252489
1.074252489
1.074252489
1.074252489
1.074252489
55295.95366
55295.93716
55295.85198
55295.63357
55295.20813
55294.51715
55293.62013
55292.66068
1.084980974
1.080406986
1.077727645
1.076173902
1.075279154
1.074775014
1.074503149
1.074365193
1.074299901
1.074271158
1.074259382
1.074254881
1.074253271
1.07425273
1.074252559
1.074252508
1.074252494
1.07425249
1.074252489
1.074252489
1.074252489
1.074252489
1.074252489
1.074252489
1.074252489
1.074252489
1.074252489
1.074252489
1.074252489
1.074252489
1.074252489
1.074252489
1.074252489
1.074252489
1.074252489
1.074252489
1.074252489
1.074252489
1.074252489
1.074252489
1.074252489
1.074252489
55295.78325
55295.73291
55295.59264
55295.31415
55294.84716
55294.18407
55293.43003
55292.64366
1.081416289
1.077940459
1.076106143
1.075178506
1.074712001
1.0744756
1.074356643
1.074298642
1.074271765
1.074260057
1.074255281
1.074253458
1.074252806
1.074252587
1.074252518
1.074252497
1.074252491
1.074252489
1.074252489
1.074252489
1.074252489
1.074252489
1.074252489
1.074252489
1.074252489
1.074252489
1.074252489
1.074252489
1.074252489
1.074252489
1.074252489
1.074252489
1.074252489
1.074252489
1.074252489
1.074252489
1.074252489
1.074252489
1.074252489
1.074252489
1.074252489
1.074252489
55295.59374
55295.50856
55295.31453
55294.98139
55294.48917
55293.88615
55293.26801
55292.63009
1.079397847
1.07667579
1.075337988
1.07473321
1.074467489
1.074349267
1.074295526
1.074271022
1.074260108
1.074255456
1.074253579
1.074252867
1.074252613
1.074252527
1.0742525
1.074252492
1.07425249
1.074252489
1.074252489
1.074252489
1.074252489
1.074252489
1.074252489
1.074252489
1.074252489
1.074252489
1.074252489
1.074252489
1.074252489
1.074252489
1.074252489
1.074252489
1.074252489
1.074252489
1.074252489
1.074252489
1.074252489
1.074252489
1.074252489
1.074252489
1.074252489
1.074252489
55295.38151
55295.26291
55295.01916
55294.64345
55294.15694
55293.6396
55293.13357
55292.62125
1.078089055
1.075939956
1.074938921
1.074523234
1.074360039
1.074296214
1.074270536
1.074259893
1.074255445
1.074253621
1.074252901
1.074252631
1.074252535
1.074252503
1.074252493
1.07425249
1.074252489
1.074252489
1.074252489
1.074252489
1.074252489
1.074252489
1.074252489
1.074252489
1.074252489
1.074252489
1.074252489
1.074252489
1.074252489
1.074252489
1.074252489
1.074252489
1.074252489
1.074252489
1.074252489
1.074252489
1.074252489
1.074252489
1.074252489
1.074252489
1.074252489
1.074252489
55295.13553
55294.98669
55294.70208
55294.30633
55293.85078
55293.42572
55293.01815
55292.61782
1.077102848
1.075440908
1.074701817
1.07441391
1.074309959
1.074273389
1.074260326
1.074255484
1.07425363
1.074252913
1.074252641
1.074252541
1.074252506
1.074252494
1.07425249
1.074252489
1.074252489
1.074252489
1.074252489
1.074252489
1.074252489
1.074252489
1.074252489
1.074252489
1.074252489
1.074252489
1.074252489
1.074252489
1.074252489
1.074252489
1.074252489
1.074252489
1.074252489
1.074252489
1.074252489
1.074252489
1.074252489
1.074252489
1.074252489
1.074252489
1.074252489
1.074252489
55294.81766
55294.64225
55294.32995
55293.94318
55293.5542
55293.222
55292.91044
55292.61442
1.076256131
1.075052221
1.074539286
1.074348899
1.07428405
1.074262894
1.074256021
1.074253727
1.074252931
1.074252646
1.074252544
1.074252507
1.074252495
1.074252491
1.074252489
1.074252489
1.074252489
1.074252489
1.074252489
1.074252489
1.074252489
1.074252489
1.074252489
1.074252489
1.074252489
1.074252489
1.074252489
1.074252489
1.074252489
1.074252489
1.074252489
1.074252489
1.074252489
1.074252489
1.074252489
1.074252489
1.074252489
1.074252489
1.074252489
1.074252489
1.074252489
1.074252489
55294.32527
55294.13075
55293.81619
55293.48685
55293.22418
55293.0008
55292.79605
55292.60812
1.075455144
1.074716658
1.074413167
1.074304282
1.074268552
1.074257432
1.074254038
1.07425299
1.074252656
1.074252545
1.074252508
1.074252495
1.074252491
1.074252489
1.074252489
1.074252489
1.074252489
1.074252489
1.074252489
1.074252489
1.074252489
1.074252489
1.074252489
1.074252489
1.074252489
1.074252489
1.074252489
1.074252489
1.074252489
1.074252489
1.074252489
1.074252489
1.074252489
1.074252489
1.074252489
1.074252489
1.074252489
1.074252489
1.074252489
1.074252489
1.074252489
1.074252489
55293.42213
55293.26623
55293.07443
55292.92927
55292.82376