/*--------------------------------*- C++ -*----------------------------------*\
  =========                 |
  \\      /  F ield         | OpenFOAM: The Open Source CFD Toolbox
   \\    /   O peration     | Website:  https://openfoam.org
    \\  /    A nd           | Version:  6
     \\/     M anipulation  |
\*---------------------------------------------------------------------------*/
FoamFile
{
    version     2.0;
    format      ascii;
    class       volScalarField;
    location    "0.07";
    object      Temperature;
}
// * * * * * * * * * * * * * * * * * * * * * * * * * * * * * * * * * * * * * //

dimensions      [0 0 0 1 0 0 0];

internalField   nonuniform List<scalar> 
2500
(
311.6869916
309.422232
306.6842626
304.6443129
303.1787471
302.0042287
300.9838842
300.0327727
300.0093726
300.0035502
300.0012076
300.0003816
300.0001154
300.0000343
300.0000103
300.0000032
300.000001
300.0000003
300.0000001
300
300
300
300
300
300
300
300
300
300
300
300
300
300
300
300
300
300
300
300
300
300
300
300
300
300
300
300
300
300
300
325.4620314
322.3885466
317.5443379
312.625511
308.8128489
305.6440037
302.7961492
300.0945253
300.0279481
300.0107997
300.0037417
300.0012069
300.0003745
300.0001153
300.0000361
300.0000117
300.0000039
300.0000013
300.0000004
300.0000001
300
300
300
300
300
300
300
300
300
300
300
300
300
300
300
300
300
300
300
300
300
300
300
300
300
300
300
300
300
300
333.4985257
330.5875049
325.5314057
319.4815402
313.6207314
308.7835069
304.381543
300.1509475
300.0465439
300.0186022
300.0066773
300.0022462
300.0007357
300.0002426
300.0000824
300.0000289
300.0000103
300.0000037
300.0000013
300.0000004
300.0000001
300
300
300
300
300
300
300
300
300
300
300
300
300
300
300
300
300
300
300
300
300
300
300
300
300
300
300
300
300
338.9039198
336.3519085
331.578471
325.1612974
318.0746626
311.7360028
305.8915845
300.2066053
300.0661886
300.0276352
300.0104588
300.0037599
300.0013392
300.0004872
300.0001827
300.0000698
300.0000266
300.0000099
300.0000035
300.0000012
300.0000004
300.0000001
300
300
300
300
300
300
300
300
300
300
300
300
300
300
300
300
300
300
300
300
300
300
300
300
300
300
300
300
343.210283
341.1235107
336.9132716
330.6212225
322.8118717
314.8995548
307.5272146
300.2684312
300.0890564
300.0392279
300.0159733
300.0063044
300.0025054
300.0010189
300.0004206
300.0001726
300.0000689
300.0000264
300.0000096
300.0000033
300.0000011
300.0000003
300.0000001
300
300
300
300
300
300
300
300
300
300
300
300
300
300
300
300
300
300
300
300
300
300
300
300
300
300
300
347.0137686
345.4807259
342.0366593
336.2778467
328.1109091
318.6259428
309.4541381
300.3446749
300.119382
300.0563134
300.0252514
300.01119
300.0050067
300.0022543
300.0010027
300.0004319
300.0001776
300.0000692
300.0000254
300.0000088
300.0000029
300.0000009
300.0000003
300.0000001
300
300
300
300
300
300
300
300
300
300
300
300
300
300
300
300
300
300
300
300
300
300
300
300
300
300
350.4805939
349.5560062
347.0014069
342.0345669
334.0128648
323.2428924
311.8067845
300.448048
300.1660937
300.0856563
300.0431012
300.0215466
300.0106967
300.0051953
300.002426
300.0010753
300.0004493
300.0001764
300.0000651
300.0000226
300.0000074
300.0000023
300.0000007
300.0000002
300
300
300
300
300
300
300
300
300
300
300
300
300
300
300
300
300
300
300
300
300
300
300
300
300
300
353.6568578
353.3492164
351.7604722
347.7455374
340.1772316
328.5602487
314.6109375
300.5969275
300.2484065
300.1428002
300.0807415
300.0446806
300.0238879
300.0121631
300.0058368
300.0026253
300.0011047
300.0004352
300.0001607
300.0000558
300.0000183
300.0000056
300.0000017
300.0000005
300.0000001
300
300
300
300
300
300
300
300
300
300
300
300
300
300
300
300
300
300
300
300
300
300
300
300
300
356.6388524
356.8802787
356.3014504
353.4093321
346.5367821
334.4522611
317.9920335
300.8368131
300.4090721
300.2628308
300.1635316
300.0970123
300.0542001
300.0282965
300.0137557
300.0062234
300.002624
300.0010334
300.0003812
300.0001321
300.0000431
300.0000133
300.0000039
300.0000011
300.0000003
300.0000001
300
300
300
300
300
300
300
300
300
300
300
300
300
300
300
300
300
300
300
300
300
300
300
300
359.6245319
360.257985
360.676592
359.1215685
353.3439905
341.2322338
322.4823351
301.2752526
300.7426411
300.5225859
300.3465085
300.2137995
300.1220691
300.0644075
300.0314404
300.0142336
300.0059943
300.002356
300.0008671
300.0002997
300.0000976
300.00003
300.0000088
300.0000024
300.0000006
300.0000002
300
300
300
300
300
300
300
300
300
300
300
300
300
300
300
300
300
300
300
300
300
300
300
300
362.8192505
363.6651815
364.9839053
364.9579393
360.761264
349.2850304
328.6216314
302.12246
301.449487
301.0834952
300.7436481
300.466988
300.268641
300.142013
300.0692511
300.0312743
300.0131309
300.0051446
300.0018875
300.0006506
300.0002113
300.0000648
300.0000189
300.0000052
300.0000014
300.0000003
300.0000001
300
300
300
300
300
300
300
300
300
300
300
300
300
300
300
300
300
300
300
300
300
300
300
366.3222067
367.3058527
369.3309501
370.9566607
368.8619803
358.8339521
336.9021568
303.8017511
302.9431581
302.270543
301.5792232
300.9954198
300.5720391
300.3014195
300.1463792
300.0658214
300.0275209
300.0107408
300.0039267
300.0013491
300.0004369
300.0001337
300.0000388
300.0000107
300.0000028
300.0000007
300.0000002
300
300
300
300
300
300
300
300
300
300
300
300
300
300
300
300
300
300
300
300
300
300
300
370.1725227
371.2907475
373.7990091
377.0946766
377.6751878
370.1228064
347.9213037
307.1580191
306.0448559
304.705495
303.2696897
302.0508788
301.1712853
300.6132703
300.2960469
300.1323994
300.0550903
300.0214084
300.007797
300.0026698
300.000862
300.0002632
300.0000762
300.0000209
300.0000055
300.0000014
300.0000003
300.0000001
300
300
300
300
300
300
300
300
300
300
300
300
300
300
300
300
300
300
300
300
300
300
374.356453
375.5675195
378.4630419
383.2583017
387.1480529
383.5096297
362.7548932
313.8191394
312.3009914
309.5061573
306.5380074
304.0588182
302.2963804
301.192497
300.5715826
300.25407
300.1051635
300.0406831
300.014759
300.0050366
300.0016214
300.0004937
300.0001425
300.0000391
300.0000102
300.0000025
300.0000006
300.0000001
300
300
300
300
300
300
300
300
300
300
300
300
300
300
300
300
300
300
300
300
300
300
378.9194146
380.2201249
383.4097615
389.3068665
396.990614
399.2488286
382.9186233
326.7166906
324.4355123
318.538418
312.544132
307.6816641
304.2972066
302.2107712
301.0514904
300.4643853
300.1911776
300.0736195
300.0266032
300.0090479
300.0029042
300.0008821
300.0002541
300.0000696
300.0000182
300.0000045
300.0000011
300.0000002
300.0000001
300
300
300
300
300
300
300
300
300
300
300
300
300
300
300
300
300
300
300
300
300
383.9180209
385.3315765
388.8613559
395.5810861
406.4690382
417.150669
410.0400914
350.6314877
346.8496217
334.6449776
322.9802235
313.8544265
307.655166
303.8996001
301.8399581
300.807304
300.3305527
300.1267141
300.045614
300.0154627
300.0049492
300.0014995
300.000431
300.0001178
300.0000307
300.0000076
300.0000018
300.0000004
300.0000001
300
300
300
300
300
300
300
300
300
300
300
300
300
300
300
300
300
300
300
300
300
389.3961141
390.9736859
394.9925608
402.6995229
416.1653591
436.1691101
445.2174218
392.3348795
385.9021483
361.6822564
340.034628
323.7422486
312.9529061
306.5327594
303.0579231
301.3330871
300.5429615
300.2072285
300.074323
300.0251161
300.0080175
300.0024234
300.0006952
300.0001897
300.0000493
300.0000122
300.0000029
300.0000007
300.0000001
300
300
300
300
300
300
300
300
300
300
300
300
300
300
300
300
300
300
300
300
300
395.3482105
397.1734629
401.902401
411.1071243
427.3438936
454.7575053
488.1788378
459.7087755
449.5000876
404.1158277
366.1002283
338.5612553
320.7759052
310.3769193
304.820199
302.0884456
300.846365
300.3216942
300.1149787
300.0387417
300.0123362
300.0037208
300.0010654
300.0002902
300.0000753
300.0000187
300.0000044
300.000001
300.0000002
300
300
300
300
300
300
300
300
300
300
300
300
300
300
300
300
300
300
300
300
300
401.6861491
403.8546465
409.5415846
420.867899
441.1591122
477.0018028
536.1426911
559.4817158
545.4710073
465.9432209
403.1331393
359.2273097
331.5337121
315.6066829
307.1976531
303.1007364
301.2508025
300.4736133
300.1687429
300.0567062
300.0180156
300.0054232
300.0015502
300.0004216
300.0001093
300.0000271
300.0000064
300.0000015
300.0000003
300.0000001
300
300
300
300
300
300
300
300
300
300
300
300
300
300
300
300
300
300
300
300
408.2282166
410.8295679
417.7243667
431.7285063
457.4559846
503.2084129
586.4085658
694.0747873
678.4778996
548.9185259
451.6924292
385.8652028
345.2226835
322.1961526
310.1703813
304.3588597
301.7510278
300.6607746
300.2347646
300.0787068
300.0249551
300.0074992
300.0021404
300.0005814
300.0001506
300.0000373
300.0000088
300.000002
300.0000004
300.0000001
300
300
300
300
300
300
300
300
300
300
300
300
300
300
300
300
300
300
300
300
414.693771
417.8013962
426.1295673
443.3456147
475.9595155
535.7625515
649.1174203
857.7965408
845.9179749
650.457702
509.901792
417.3127441
361.1988893
329.8195903
313.5863146
305.7968607
302.3203392
300.87305
300.3094331
300.1035299
300.0327693
300.009833
300.0028029
300.0007605
300.0001968
300.0000486
300.0000115
300.0000026
300.0000006
300.0000001
300
300
300
300
300
300
300
300
300
300
300
300
300
300
300
300
300
300
300
300
420.7052904
424.3580155
434.245765
455.0161072
495.3462074
571.9490316
717.8590383
1036.006579
1034.565279
762.1238759
572.7908473
450.8447508
378.066898
337.8084208
317.1452995
307.2882929
302.9086732
301.0917784
300.3861874
300.1289958
300.0407724
300.0122198
300.0034796
300.0009432
300.0002439
300.0000602
300.0000142
300.0000032
300.0000007
300.0000001
300
300
300
300
300
300
300
300
300
300
300
300
300
300
300
300
300
300
300
300
425.8165284
429.9965272
441.4014039
465.6888311
513.7139868
607.5007924
789.1483346
1207.436281
1220.093887
869.7445345
632.5157642
482.3465319
393.7861426
345.2078373
320.4262637
308.6581875
303.4474952
301.2916311
300.4561841
300.1521829
300.0480497
300.0143876
300.0040937
300.0011089
300.0002865
300.0000707
300.0000167
300.0000038
300.0000008
300.0000002
300
300
300
300
300
300
300
300
300
300
300
300
300
300
300
300
300
300
300
300
429.5685017
434.1830844
446.8492296
474.129956
528.9133134
638.0664602
855.017501
1345.056705
1370.692686
955.7634418
679.7205392
507.0414333
406.0342757
350.947099
322.9622536
309.7141732
303.8619603
301.4450955
300.5098587
300.1699426
300.0536183
300.0160451
300.0045629
300.0012354
300.0003191
300.0000787
300.0000186
300.0000042
300.0000009
300.0000002
300
300
300
300
300
300
300
300
300
300
300
300
300
300
300
300
300
300
300
300
431.5654684
436.4344567
449.8452412
478.934722
537.9680366
656.8520905
901.2299624
1423.28622
1455.670688
1003.791461
705.8843717
520.6574421
412.7617855
354.0905465
324.3482466
310.2903389
304.0878038
301.5286311
300.5390505
300.1795947
300.0566429
300.0169449
300.0048175
300.0013041
300.0003367
300.0000831
300.0000196
300.0000044
300.000001
300.0000002
300
300
300
300
300
300
300
300
300
300
300
300
300
300
300
300
300
300
300
300
431.5654662
436.4344545
449.8452393
478.9347205
537.9680357
656.8520902
901.2299605
1423.286217
1455.670683
1003.791458
705.88437
520.6574413
412.7617852
354.0905463
324.3482465
310.2903389
304.0878038
301.5286311
300.5390505
300.1795947
300.0566429
300.0169449
300.0048175
300.0013041
300.0003367
300.0000831
300.0000196
300.0000044
300.000001
300.0000002
300
300
300
300
300
300
300
300
300
300
300
300
300
300
300
300
300
300
300
300
429.5684949
434.1830779
446.8492239
474.1299517
528.9133112
638.0664599
855.0175028
1345.056696
1370.692672
955.7634328
679.7205349
507.0414314
406.0342748
350.9470987
322.9622535
309.7141731
303.8619603
301.4450955
300.5098587
300.1699426
300.0536183
300.0160451
300.0045629
300.0012354
300.0003191
300.0000787
300.0000186
300.0000042
300.0000009
300.0000002
300
300
300
300
300
300
300
300
300
300
300
300
300
300
300
300
300
300
300
300
425.8165169
429.9965162
441.4013942
465.6888239
513.7139837
607.5007943
789.1483423
1207.436271
1220.093871
869.7445244
632.5157597
482.3465299
393.7861418
345.207837
320.4262636
308.6581875
303.4474952
301.2916311
300.4561841
300.1521829
300.0480497
300.0143876
300.0040937
300.0011089
300.0002865
300.0000707
300.0000167
300.0000038
300.0000008
300.0000002
300
300
300
300
300
300
300
300
300
300
300
300
300
300
300
300
300
300
300
300
420.7052741
424.3579997
434.2457507
455.0160962
495.3462022
571.9490341
717.8590478
1036.006579
1034.56527
762.1238712
572.7908456
450.8447502
378.0668978
337.8084208
317.1452994
307.2882929
302.9086732
301.0917784
300.3861874
300.1289958
300.0407724
300.0122198
300.0034796
300.0009432
300.0002439
300.0000602
300.0000142
300.0000032
300.0000007
300.0000001
300
300
300
300
300
300
300
300
300
300
300
300
300
300
300
300
300
300
300
300
414.6937496
417.8013753
426.1295478
443.3455983
475.959505
535.7625493
649.1174217
857.7965563
845.9179822
650.4577069
509.9017948
417.3127456
361.19889
329.8195906
313.5863147
305.7968608
302.3203392
300.87305
300.3094331
300.1035299
300.0327693
300.009833
300.0028029
300.0007605
300.0001968
300.0000486
300.0000115
300.0000026
300.0000006
300.0000001
300
300
300
300
300
300
300
300
300
300
300
300
300
300
300
300
300
300
300
300
408.2281902
410.8295417
417.7243413
431.7284826
457.4559643
503.2083952
586.4085468
694.074817
678.4779219
548.9185382
451.6924353
385.8652057
345.2226849
322.1961532
310.1703816
304.3588598
301.7510278
300.6607746
300.2347646
300.0787068
300.0249551
300.0074992
300.0021404
300.0005814
300.0001506
300.0000373
300.0000088
300.000002
300.0000004
300.0000001
300
300
300
300
300
300
300
300
300
300
300
300
300
300
300
300
300
300
300
300
401.6861179
403.8546152
409.5415533
420.8678674
441.1590797
477.0017652
536.1426532
559.4817414
545.47103
465.9432337
403.1331459
359.227313
331.5337136
315.6066836
307.1976534
303.1007365
301.2508026
300.4736133
300.1687429
300.0567062
300.0180156
300.0054232
300.0015502
300.0004216
300.0001093
300.0000271
300.0000064
300.0000015
300.0000003
300.0000001
300
300
300
300
300
300
300
300
300
300
300
300
300
300
300
300
300
300
300
300
395.3481754
397.1734276
401.9023649
411.1070861
427.3438503
454.7574505
488.1788013
459.7087851
449.5001021
404.1158368
366.1002335
338.561258
320.7759065
310.3769199
304.8201993
302.0884457
300.8463651
300.3216942
300.1149788
300.0387417
300.0123362
300.0037208
300.0010654
300.0002902
300.0000753
300.0000187
300.0000044
300.000001
300.0000002
300
300
300
300
300
300
300
300
300
300
300
300
300
300
300
300
300
300
300
300
300
389.3960762
390.9736479
394.9925224
402.6994828
416.1653154
436.1690603
445.2173908
392.3348827
385.9021557
361.6822616
340.0346312
323.7422504
312.952907
306.5327598
303.0579233
301.3330872
300.5429615
300.2072285
300.074323
300.0251161
300.0080175
300.0024234
300.0006952
300.0001897
300.0000493
300.0000122
300.0000029
300.0000007
300.0000001
300
300
300
300
300
300
300
300
300
300
300
300
300
300
300
300
300
300
300
300
300
383.9179814
385.3315375
388.8613177
395.5810483
406.468999
417.1506285
410.0400629
350.6314907
346.849625
334.6449801
322.9802252
313.8544275
307.6551665
303.8996003
301.8399582
300.807304
300.3305527
300.1267141
300.045614
300.0154627
300.0049492
300.0014995
300.000431
300.0001178
300.0000307
300.0000076
300.0000018
300.0000004
300.0000001
300
300
300
300
300
300
300
300
300
300
300
300
300
300
300
300
300
300
300
300
300
378.9193746
380.2200862
383.4097252
389.3068337
396.9905784
399.2487935
382.9186021
326.7166931
324.4355135
318.538419
312.5441328
307.6816645
304.2972068
302.2107713
301.0514905
300.4643853
300.1911776
300.0736195
300.0266032
300.0090479
300.0029042
300.0008821
300.0002541
300.0000696
300.0000182
300.0000045
300.0000011
300.0000002
300.0000001
300
300
300
300
300
300
300
300
300
300
300
300
300
300
300
300
300
300
300
300
300
374.3564132
375.5674814
378.4630067
383.2582698
387.1480196
383.5096
362.7548856
313.8191396
312.3009916
309.5061576
306.5380076
304.0588184
302.2963805
301.1924971
300.5715826
300.25407
300.1051635
300.0406831
300.014759
300.0050366
300.0016214
300.0004937
300.0001425
300.0000391
300.0000102
300.0000025
300.0000006
300.0000001
300
300
300
300
300
300
300
300
300
300
300
300
300
300
300
300
300
300
300
300
300
300
370.1724834
371.2907101
373.798975
377.0946458
377.6751582
370.1227831
347.9213143
307.1580189
306.0448559
304.705495
303.2696897
302.0508788
301.1712853
300.6132703
300.296047
300.1323994
300.0550903
300.0214084
300.007797
300.0026698
300.000862
300.0002632
300.0000762
300.0000209
300.0000055
300.0000014
300.0000003
300.0000001
300
300
300
300
300
300
300
300
300
300
300
300
300
300
300
300
300
300
300
300
300
300
366.3221685
367.3058162
369.3309184
370.9566331
368.8619554
358.8339317
336.9021507
303.8017504
302.9431579
302.2705429
301.5792231
300.9954197
300.5720391
300.3014195
300.1463792
300.0658214
300.0275209
300.0107408
300.0039267
300.0013491
300.0004369
300.0001337
300.0000388
300.0000107
300.0000028
300.0000007
300.0000002
300
300
300
300
300
300
300
300
300
300
300
300
300
300
300
300
300
300
300
300
300
300
300
362.8192144
363.6651476
364.9838764
364.9579151
360.7612428
349.2850122
328.6216191
302.1224594
301.4494867
301.083495
300.743648
300.466988
300.268641
300.142013
300.0692511
300.0312743
300.0131309
300.0051446
300.0018875
300.0006506
300.0002113
300.0000648
300.0000189
300.0000052
300.0000014
300.0000003
300.0000001
300
300
300
300
300
300
300
300
300
300
300
300
300
300
300
300
300
300
300
300
300
300
300
359.624498
360.2579536
360.6765652
359.1215461
353.3439715
341.2322177
322.4823248
301.2752521
300.7426408
300.5225857
300.3465084
300.2137994
300.1220691
300.0644075
300.0314404
300.0142336
300.0059943
300.002356
300.0008671
300.0002997
300.0000976
300.00003
300.0000088
300.0000024
300.0000006
300.0000002
300
300
300
300
300
300
300
300
300
300
300
300
300
300
300
300
300
300
300
300
300
300
300
300
356.6388206
356.8802491
356.3014243
353.4093097
346.5367631
334.4522457
317.9920246
300.8368127
300.4090719
300.2628307
300.1635316
300.0970123
300.0542001
300.0282965
300.0137557
300.0062234
300.002624
300.0010334
300.0003812
300.0001321
300.0000431
300.0000133
300.0000039
300.0000011
300.0000003
300.0000001
300
300
300
300
300
300
300
300
300
300
300
300
300
300
300
300
300
300
300
300
300
300
300
300
353.6568276
353.3491876
351.7604457
347.7455138
340.1772111
328.5602322
314.6109288
300.5969271
300.2484064
300.1428002
300.0807414
300.0446805
300.0238879
300.0121631
300.0058368
300.0026253
300.0011047
300.0004352
300.0001607
300.0000558
300.0000183
300.0000056
300.0000017
300.0000005
300.0000001
300
300
300
300
300
300
300
300
300
300
300
300
300
300
300
300
300
300
300
300
300
300
300
300
300
350.4805649
349.5559781
347.0013802
342.0345422
334.012843
323.242876
311.8067762
300.4480477
300.1660936
300.0856563
300.0431011
300.0215466
300.0106966
300.0051953
300.002426
300.0010753
300.0004493
300.0001764
300.0000651
300.0000226
300.0000074
300.0000023
300.0000007
300.0000002
300
300
300
300
300
300
300
300
300
300
300
300
300
300
300
300
300
300
300
300
300
300
300
300
300
300
347.0137412
345.4806993
342.0366337
336.2778231
328.110889
318.6259288
309.4541313
300.3446746
300.1193818
300.0563133
300.0252514
300.01119
300.0050067
300.0022543
300.0010027
300.0004319
300.0001776
300.0000692
300.0000254
300.0000088
300.0000029
300.0000009
300.0000003
300.0000001
300
300
300
300
300
300
300
300
300
300
300
300
300
300
300
300
300
300
300
300
300
300
300
300
300
300
343.210258
341.1234868
336.9132491
330.6212024
322.8118552
314.8995443
307.5272093
300.268431
300.0890563
300.0392278
300.0159733
300.0063044
300.0025054
300.0010189
300.0004206
300.0001726
300.0000689
300.0000264
300.0000096
300.0000033
300.0000011
300.0000003
300.0000001
300
300
300
300
300
300
300
300
300
300
300
300
300
300
300
300
300
300
300
300
300
300
300
300
300
300
300
338.9038977
336.3518881
331.5784527
325.161282
318.0746513
311.7359953
305.8915804
300.2066051
300.0661886
300.0276351
300.0104588
300.0037599
300.0013392
300.0004872
300.0001827
300.0000698
300.0000266
300.0000099
300.0000035
300.0000012
300.0000004
300.0000001
300
300
300
300
300
300
300
300
300
300
300
300
300
300
300
300
300
300
300
300
300
300
300
300
300
300
300
300
333.4985064
330.587488
325.5313914
319.4815284
313.6207235
308.7835021
304.3815401
300.1509474
300.0465438
300.0186021
300.0066773
300.0022462
300.0007357
300.0002426
300.0000824
300.0000289
300.0000103
300.0000037
300.0000013
300.0000004
300.0000001
300
300
300
300
300
300
300
300
300
300
300
300
300
300
300
300
300
300
300
300
300
300
300
300
300
300
300
300
300
325.4620154
322.3885336
317.5443272
312.6255037
308.8128441
305.6440007
302.7961475
300.0945252
300.0279481
300.0107997
300.0037417
300.0012069
300.0003745
300.0001153
300.0000361
300.0000117
300.0000039
300.0000013
300.0000004
300.0000001
300
300
300
300
300
300
300
300
300
300
300
300
300
300
300
300
300
300
300
300
300
300
300
300
300
300
300
300
300
300
311.686983
309.4222258
306.684258
304.6443098
303.178745
302.0042275
300.9838836
300.0327726
300.0093726
300.0035502
300.0012076
300.0003816
300.0001154
300.0000343
300.0000103
300.0000032
300.000001
300.0000003
300.0000001
300
300
300
300
300
300
300
300
300
300
300
300
300
300
300
300
300
300
300
300
300
300
300
300
300
300
300
300
300
300
300
)
;

boundaryField
{
    lowerWall
    {
        type            fixedValue;
        value           uniform 300;
    }
    atmosphere
    {
        type            zeroGradient;
    }
    rightWall
    {
        type            empty;
    }
    leftWall
    {
        type            empty;
    }
    frontAndBack
    {
        type            fixedValue;
        value           uniform 300;
    }
}


// ************************************************************************* //
