/*--------------------------------*- C++ -*----------------------------------*\
  =========                 |
  \\      /  F ield         | OpenFOAM: The Open Source CFD Toolbox
   \\    /   O peration     | Website:  https://openfoam.org
    \\  /    A nd           | Version:  6
     \\/     M anipulation  |
\*---------------------------------------------------------------------------*/
FoamFile
{
    version     2.0;
    format      ascii;
    class       volVectorField;
    location    "0.07";
    object      U;
}
// * * * * * * * * * * * * * * * * * * * * * * * * * * * * * * * * * * * * * //

dimensions      [0 1 -1 0 0 0 0];

internalField   nonuniform List<vector> 
2500
(
(0 -0.969390318 -0.5965362556)
(0 0.1489303014 -0.2659895856)
(0 0.278460424 -0.03900035766)
(0 0.2736231749 0.05486809622)
(0 0.1895565391 0.05356973829)
(0 0.08906764863 0.03443390571)
(0 0.005561049822 0.02769108297)
(0 -0.0002710676952 -0.0005583613608)
(0 -2.503918772e-14 1.859096253e-18)
(0 -4.980297361e-14 -2.123738832e-16)
(0 -4.91101866e-14 -4.180884312e-16)
(0 -4.808363057e-14 -6.085186477e-16)
(0 -4.669657307e-14 -7.783871534e-16)
(0 -4.499451084e-14 -9.235205274e-16)
(0 -4.302956494e-14 -1.041282569e-15)
(0 -4.085752962e-14 -1.13063662e-15)
(0 -3.853480991e-14 -1.192006623e-15)
(0 -3.611575551e-14 -1.227021098e-15)
(0 -3.365056228e-14 -1.238202146e-15)
(0 -3.11838031e-14 -1.228647573e-15)
(0 -2.875356743e-14 -1.201740284e-15)
(0 -2.639113435e-14 -1.160905558e-15)
(0 -2.412107436e-14 -1.109425057e-15)
(0 -2.196166647e-14 -1.050307574e-15)
(0 -1.992552266e-14 -9.862106843e-16)
(0 -1.80203271e-14 -9.194044291e-16)
(0 -1.624961559e-14 -8.517671306e-16)
(0 -1.461354074e-14 -7.848039273e-16)
(0 -1.310958531e-14 -7.196798318e-16)
(0 -1.173320161e-14 -6.572607238e-16)
(0 -1.047836573e-14 -5.981573119e-16)
(0 -9.338044512e-15 -5.427685693e-16)
(0 -8.304578297e-15 -4.913223764e-16)
(0 -7.369986545e-15 -4.439120632e-16)
(0 -6.526205042e-15 -4.005282556e-16)
(0 -5.765264215e-15 -3.610859226e-16)
(0 -5.07941794e-15 -3.254468419e-16)
(0 -4.461231593e-15 -2.934378922e-16)
(0 -3.903637199e-15 -2.648656719e-16)
(0 -3.399962486e-15 -2.395279757e-16)
(0 -2.943939625e-15 -2.172226417e-16)
(0 -2.529698425e-15 -1.9775425e-16)
(0 -2.151747861e-15 -1.809390971e-16)
(0 -1.804949001e-15 -1.666088239e-16)
(0 -1.484481693e-15 -1.54613034e-16)
(0 -1.185806688e-15 -1.448212397e-16)
(0 -9.046240786e-16 -1.371246116e-16)
(0 -6.368273361e-16 -1.31438651e-16)
(0 -3.78447414e-16 -1.277105529e-16)
(0 -1.255610726e-16 -1.259470669e-16)
(0 -0.8158061013 -1.008088416)
(0 -0.2750055695 -0.6018719634)
(0 -0.01009596554 -0.1933636385)
(0 0.1536446915 0.04145176536)
(0 0.1475157928 0.1201955642)
(0 0.07068841758 0.1030096297)
(0 0.00152650426 0.0797684904)
(0 -0.0001352448369 0.0006385107223)
(0 -2.525492293e-14 6.031824579e-18)
(0 -5.02255596e-14 -6.472860521e-16)
(0 -4.950633136e-14 -1.269580156e-15)
(0 -4.844392929e-14 -1.846166822e-15)
(0 -4.701157495e-14 -2.35995535e-15)
(0 -4.525740625e-14 -2.798003024e-15)
(0 -4.323668103e-14 -3.152338047e-15)
(0 -4.100825367e-14 -3.419988917e-15)
(0 -3.863119439e-14 -3.602483157e-15)
(0 -3.616195103e-14 -3.705017056e-15)
(0 -3.365218876e-14 -3.735474612e-15)
(0 -3.114734124e-14 -3.703439716e-15)
(0 -2.868582542e-14 -3.619303756e-15)
(0 -2.629881912e-14 -3.49352854e-15)
(0 -2.401047638e-14 -3.336088327e-15)
(0 -2.183845209e-14 -3.156087863e-15)
(0 -1.979461952e-14 -2.961536243e-15)
(0 -1.788588354e-14 -2.759247799e-15)
(0 -1.611501509e-14 -2.554839e-15)
(0 -1.448145344e-14 -2.352792224e-15)
(0 -1.298204211e-14 -2.156561535e-15)
(0 -1.161167909e-14 -1.968700619e-15)
(0 -1.036387358e-14 -1.790998172e-15)
(0 -9.231209576e-15 -1.624610473e-15)
(0 -8.205721791e-15 -1.470184619e-15)
(0 -7.279192424e-15 -1.32796875e-15)
(0 -6.443378901e-15 -1.197907695e-15)
(0 -5.690182801e-15 -1.079723888e-15)
(0 -5.01176991e-15 -9.729843684e-16)
(0 -4.400650423e-15 -8.771551482e-16)
(0 -3.849727283e-15 -7.916445444e-16)
(0 -3.352319456e-15 -7.158370897e-16)
(0 -2.902165899e-15 -6.49119599e-16)
(0 -2.49341488e-15 -5.90900836e-16)
(0 -2.120602435e-15 -5.406260609e-16)
(0 -1.778622938e-15 -4.977875777e-16)
(0 -1.462694109e-15 -4.619322503e-16)
(0 -1.168318266e-15 -4.326668618e-16)
(0 -8.912414899e-16 -4.096622371e-16)
(0 -6.274132774e-16 -3.926574497e-16)
(0 -3.729558298e-16 -3.814668742e-16)
(0 -1.237975865e-16 -3.759979337e-16)
(0 -0.888716297 -1.229181291)
(0 -0.5948166987 -0.905178411)
(0 -0.2610776031 -0.4221403227)
(0 -0.05170796137 -0.06535097329)
(0 0.04767807405 0.1224941167)
(0 0.02136928659 0.1384663585)
(0 -0.009441581028 0.1121519512)
(0 9.91666767e-05 -0.0006642774427)
(0 -2.568511232e-14 -6.21216337e-18)
(0 -5.107762016e-14 -1.108476857e-15)
(0 -5.030906737e-14 -2.166768561e-15)
(0 -4.917400577e-14 -3.146633678e-15)
(0 -4.764840927e-14 -4.017289017e-15)
(0 -4.578689354e-14 -4.75623081e-15)
(0 -4.365155083e-14 -5.350120936e-15)
(0 -4.130767473e-14 -5.794553252e-15)
(0 -3.881983805e-14 -6.092988205e-15)
(0 -3.624874696e-14 -6.255170188e-15)
(0 -3.364898494e-14 -6.295332368e-15)
(0 -3.106763225e-14 -6.230436823e-15)
(0 -2.854365626e-14 -6.078620362e-15)
(0 -2.610791892e-14 -5.857939296e-15)
(0 -2.378363369e-14 -5.585442534e-15)
(0 -2.158711438e-14 -5.276557054e-15)
(0 -1.95286826e-14 -4.944742719e-15)
(0 -1.761362985e-14 -4.601361404e-15)
(0 -1.584316002e-14 -4.255704053e-15)
(0 -1.421526327e-14 -3.915124617e-15)
(0 -1.272549371e-14 -3.585238328e-15)
(0 -1.136763824e-14 -3.270151346e-15)
(0 -1.013427558e-14 -2.972697808e-15)
(0 -9.017230959e-15 -2.694668079e-15)
(0 -8.007936574e-15 -2.437018249e-15)
(0 -7.09770962e-15 -2.200055629e-15)
(0 -6.27796018e-15 -1.983598317e-15)
(0 -5.540340889e-15 -1.787109218e-15)
(0 -4.8768492e-15 -1.609806246e-15)
(0 -4.27989177e-15 -1.45075121e-15)
(0 -3.742319141e-15 -1.308920226e-15)
(0 -3.257437541e-15 -1.18325849e-15)
(0 -2.819003371e-15 -1.072722122e-15)
(0 -2.421204887e-15 -9.763095156e-16)
(0 -2.058634603e-15 -8.930843428e-16)
(0 -1.726255191e-15 -8.221920514e-16)
(0 -1.419360977e-15 -7.628714011e-16)
(0 -1.133536675e-15 -7.14462318e-16)
(0 -8.646146665e-16 -6.764110601e-16)
(0 -6.086319732e-16 -6.482731813e-16)
(0 -3.617878979e-16 -6.297131266e-16)
(0 -1.200921321e-16 -6.204921164e-16)
(0 -0.9262909737 -1.332883141)
(0 -0.8390332604 -1.183205538)
(0 -0.4874127885 -0.6965398021)
(0 -0.2270364752 -0.2316182004)
(0 -0.04844518528 0.06625080246)
(0 -0.02768627467 0.131603964)
(0 -0.01621725564 0.113672355)
(0 0.0003414926953 -0.004198512915)
(0 -2.63526961e-14 -2.779913592e-17)
(0 -5.238860797e-14 -1.610863711e-15)
(0 -5.154448818e-14 -3.14230056e-15)
(0 -5.029444975e-14 -4.556254291e-15)
(0 -4.862117208e-14 -5.806271914e-15)
(0 -4.659023817e-14 -6.859443297e-15)
(0 -4.427500347e-14 -7.697296238e-15)
(0 -4.175112094e-14 -8.315053765e-15)
(0 -3.909181133e-14 -8.719690369e-15)
(0 -3.636429519e-14 -8.927292485e-15)
(0 -3.362745539e-14 -8.960201473e-15)
(0 -3.093062924e-14 -8.844311312e-15)
(0 -2.831332789e-14 -8.606759324e-15)
(0 -2.580564129e-14 -8.274123305e-15)
(0 -2.342909414e-14 -7.871141567e-15)
(0 -2.119775228e-14 -7.41990878e-15)
(0 -1.911942387e-14 -6.939466742e-15)
(0 -1.719684488e-14 -6.445698058e-15)
(0 -1.54287783e-14 -5.951434442e-15)
(0 -1.381098771e-14 -5.466703299e-15)
(0 -1.233706884e-14 -4.999051509e-15)
(0 -1.099913857e-14 -4.553900745e-15)
(0 -9.788390308e-15 -4.134902381e-15)
(0 -8.695530018e-15 -3.744271395e-15)
(0 -7.711109341e-15 -3.3830874e-15)
(0 -6.825772491e-15 -3.051557295e-15)
(0 -6.03043249e-15 -2.749238428e-15)
(0 -5.31639073e-15 -2.475223962e-15)
(0 -4.675411901e-15 -2.228293781e-15)
(0 -4.099764404e-15 -2.00703507e-15)
(0 -3.582234563e-15 -1.809936956e-15)
(0 -3.116121352e-15 -1.635463443e-15)
(0 -2.695216925e-15 -1.482108595e-15)
(0 -2.313777101e-15 -1.348437421e-15)
(0 -1.966484971e-15 -1.2331155e-15)
(0 -1.648409996e-15 -1.13492988e-15)
(0 -1.354964376e-15 -1.052803357e-15)
(0 -1.081857925e-15 -9.858038282e-16)
(0 -8.250523532e-16 -9.331500218e-16)
(0 -5.807153438e-16 -8.942144058e-16)
(0 -3.451747649e-16 -8.685235569e-16)
(0 -1.145765764e-16 -8.557563188e-16)
(0 -0.8512120978 -1.304655828)
(0 -0.9794543368 -1.378610164)
(0 -0.676417718 -1.003814669)
(0 -0.3692310888 -0.476970963)
(0 -0.1240026961 -0.05470055655)
(0 -0.05014600515 0.09157489249)
(0 -0.01421373926 0.08897094485)
(0 0.0004570452175 -0.007622381797)
(0 -2.728274052e-14 -4.594046802e-17)
(0 -5.420460072e-14 -2.173298655e-15)
(0 -5.325445795e-14 -4.23522947e-15)
(0 -5.183797712e-14 -6.12974202e-15)
(0 -4.995159827e-14 -7.792027287e-15)
(0 -4.767791786e-14 -9.177903813e-15)
(0 -4.51071613e-14 -1.026450591e-14)
(0 -4.233006886e-14 -1.1048627e-14)
(0 -3.943207677e-14 -1.154339276e-14)
(0 -3.648925807e-14 -1.177408682e-14)
(0 -3.356600377e-14 -1.177385986e-14)
(0 -3.07141901e-14 -1.157984646e-14)
(0 -2.797346825e-14 -1.122998724e-14)
(0 -2.537230116e-14 -1.076066168e-14)
(0 -2.292941916e-14 -1.020510205e-14)
(0 -2.065543956e-14 -9.592480413e-15)
(0 -1.855447188e-14 -8.947527254e-15)
(0 -1.662559755e-14 -8.290537995e-15)
(0 -1.486416526e-14 -7.637638838e-15)
(0 -1.326288034e-14 -7.001207086e-15)
(0 -1.181269115e-14 -6.390366116e-15)
(0 -1.050348912e-14 -5.811498304e-15)
(0 -9.324646234e-15 -5.268738416e-15)
(0 -8.265415978e-15 -4.764425046e-15)
(0 -7.315222474e-15 -4.299498677e-15)
(0 -6.463860648e-15 -3.873842631e-15)
(0 -5.701626846e-15 -3.486568121e-15)
(0 -5.019396242e-15 -3.136247642e-15)
(0 -4.408660309e-15 -2.821102444e-15)
(0 -3.861534945e-15 -2.539150433e-15)
(0 -3.370747514e-15 -2.28832078e-15)
(0 -2.92960918e-15 -2.06654111e-15)
(0 -2.531977349e-15 -1.87180252e-15)
(0 -2.172211792e-15 -1.702207001e-15)
(0 -1.845127062e-15 -1.556001132e-15)
(0 -1.545943047e-15 -1.43159927e-15)
(0 -1.270234925e-15 -1.327598884e-15)
(0 -1.01388334e-15 -1.242790114e-15)
(0 -7.730252442e-16 -1.176161243e-15)
(0 -5.440055083e-16 -1.126901283e-15)
(0 -3.233298109e-16 -1.094400732e-15)
(0 -1.073248939e-16 -1.078251816e-15)
(0 -0.6480244733 -1.147652713)
(0 -0.9781137768 -1.435252813)
(0 -0.8055871774 -1.281793705)
(0 -0.5099991623 -0.8033881183)
(0 -0.1696898238 -0.2444038415)
(0 -0.0428210996 0.02961381052)
(0 -0.005441411003 0.05459138619)
(0 0.0003416447233 -0.008820973165)
(0 -2.851271245e-14 -4.686679996e-17)
(0 -5.660061208e-14 -2.820913098e-15)
(0 -5.550093155e-14 -5.495496351e-15)
(0 -5.385124757e-14 -7.935353965e-15)
(0 -5.166933387e-14 -1.005408485e-14)
(0 -4.906271679e-14 -1.179554046e-14)
(0 -4.614572665e-14 -1.313411486e-14)
(0 -4.303000779e-14 -1.407149466e-14)
(0 -3.981727115e-14 -1.463112736e-14)
(0 -3.65947623e-14 -1.485178208e-14)
(0 -3.343321503e-14 -1.478130044e-14)
(0 -3.038675661e-14 -1.447123498e-14)
(0 -2.749414311e-14 -1.397269696e-14)
(0 -2.478075611e-14 -1.333345414e-14)
(0 -2.226091287e-14 -1.259614647e-14)
(0 -1.994017748e-14 -1.179740543e-14)
(0 -1.781748145e-14 -1.096764439e-14)
(0 -1.588695646e-14 -1.013130624e-14)
(0 -1.413944739e-14 -9.307391749e-15)
(0 -1.256371499e-14 -8.510133428e-15)
(0 -1.114736006e-14 -7.749718423e-15)
(0 -9.877510868e-15 -7.032996524e-15)
(0 -8.741317049e-15 -6.364134513e-15)
(0 -7.726290279e-15 -5.745196553e-15)
(0 -6.820526927e-15 -5.176643051e-15)
(0 -6.012841935e-15 -4.657748669e-15)
(0 -5.292837501e-15 -4.186945071e-15)
(0 -4.650925053e-15 -3.762096575e-15)
(0 -4.078314692e-15 -3.380717868e-15)
(0 -3.56698274e-15 -3.040142938e-15)
(0 -3.10962524e-15 -2.737653786e-15)
(0 -2.699603092e-15 -2.470576611e-15)
(0 -2.330882816e-15 -2.236352109e-15)
(0 -1.997975713e-15 -2.032585541e-15)
(0 -1.69587724e-15 -1.857081277e-15)
(0 -1.420007748e-15 -1.707865651e-15)
(0 -1.16615522e-15 -1.583201218e-15)
(0 -9.304202848e-16 -1.481594903e-15)
(0 -7.091635217e-16 -1.401801938e-15)
(0 -4.989548324e-16 -1.342827121e-15)
(0 -2.965252984e-16 -1.303924619e-15)
(0 -9.842766096e-17 -1.284597431e-15)
(0 -0.3610471942 -0.8884757978)
(0 -0.830679561 -1.323328685)
(0 -0.8371123876 -1.44442621)
(0 -0.6379231973 -1.144314116)
(0 -0.2712123617 -0.5476308649)
(0 -0.01629037876 -0.04343295776)
(0 0.006675206698 0.03340260149)
(0 -4.726375455e-06 -0.007329778452)
(0 -3.009397279e-14 -3.341161433e-17)
(0 -5.96806897e-14 -3.591465555e-15)
(0 -5.836889882e-14 -6.990423523e-15)
(0 -5.639656562e-14 -1.006194176e-14)
(0 -5.381178477e-14 -1.269326521e-14)
(0 -5.075794787e-14 -1.481592205e-14)
(0 -4.73831155e-14 -1.640480978e-14)
(0 -4.382708136e-14 -1.747203296e-14)
(0 -4.021236419e-14 -1.805779468e-14)
(0 -3.663943115e-14 -1.822059524e-14)
(0 -3.318545667e-14 -1.802832713e-14)
(0 -2.990558663e-14 -1.755111289e-14)
(0 -2.683568741e-14 -1.685613724e-14)
(0 -2.399575066e-14 -1.600434162e-14)
(0 -2.139337045e-14 -1.504865546e-14)
(0 -1.902693748e-14 -1.403338045e-14)
(0 -1.688837268e-14 -1.299436601e-14)
(0 -1.496534491e-14 -1.195967482e-14)
(0 -1.324299245e-14 -1.095050889e-14)
(0 -1.170520701e-14 -9.982233323e-15)
(0 -1.033555425e-14 -9.065391224e-15)
(0 -9.117905207e-15 -8.206645559e-15)
(0 -8.036846264e-15 -7.409614772e-15)
(0 -7.077924516e-15 -6.675589729e-15)
(0 -6.22777459e-15 -6.004132721e-15)
(0 -5.474162667e-15 -5.393566962e-15)
(0 -4.805974752e-15 -4.841368869e-15)
(0 -4.21316904e-15 -4.344476826e-15)
(0 -3.686706672e-15 -3.899529982e-15)
(0 -3.218470862e-15 -3.503049647e-15)
(0 -2.801181187e-15 -3.151574445e-15)
(0 -2.428307503e-15 -2.84175882e-15)
(0 -2.093986278e-15 -2.570442969e-15)
(0 -1.79294096e-15 -2.334700864e-15)
(0 -1.520407172e-15 -2.1318718e-15)
(0 -1.272062988e-15 -1.959579804e-15)
(0 -1.043964178e-15 -1.815744378e-15)
(0 -8.3248406e-16 -1.698585273e-15)
(0 -6.342574616e-16 -1.606623408e-15)
(0 -4.461281895e-16 -1.538679563e-15)
(0 -2.651001213e-16 -1.493872107e-15)
(0 -8.799770607e-17 -1.471614737e-15)
(0 -0.07989736325 -0.5797462739)
(0 -0.5840229508 -1.067540141)
(0 -0.7650701318 -1.439813737)
(0 -0.7121964538 -1.400382846)
(0 -0.4081119454 -0.9024499279)
(0 -0.05394686834 -0.22419836)
(0 0.01930077675 0.03211033355)
(0 -0.0006179698973 -0.004693508335)
(0 -3.209541322e-14 -2.034956308e-17)
(0 -6.358348736e-14 -4.538986099e-15)
(0 -6.197140775e-14 -8.812730006e-15)
(0 -5.955408926e-14 -1.262850359e-14)
(0 -5.642331416e-14 -1.584089567e-14)
(0 -5.277426136e-14 -1.836988698e-14)
(0 -4.880183757e-14 -2.019702894e-14)
(0 -4.468299269e-14 -2.135394139e-14)
(0 -4.056583343e-14 -2.190737631e-14)
(0 -3.656529475e-14 -2.194446602e-14)
(0 -3.276373267e-14 -2.156031474e-14)
(0 -2.921456673e-14 -2.084878352e-14)
(0 -2.594737185e-14 -1.989643769e-14)
(0 -2.297327433e-14 -1.877916293e-14)
(0 -2.02899517e-14 -1.756079574e-14)
(0 -1.788588802e-14 -1.629313403e-14)
(0 -1.574377582e-14 -1.501679886e-14)
(0 -1.384309934e-14 -1.376254755e-14)
(0 -1.216200589e-14 -1.255276e-14)
(0 -1.067859732e-14 -1.140291938e-14)
(0 -9.371772294e-15 -1.032298305e-14)
(0 -8.221734415e-15 -9.318591599e-15)
(0 -7.21026122e-15 -8.392098181e-15)
(0 -6.320808228e-15 -7.543421322e-15)
(0 -5.53850416e-15 -6.770735639e-15)
(0 -4.850078082e-15 -6.071020544e-15)
(0 -4.243747365e-15 -5.440488381e-15)
(0 -3.709086166e-15 -4.874912738e-15)
(0 -3.236887513e-15 -4.369875772e-15)
(0 -2.819027203e-15 -3.920950917e-15)
(0 -2.448334413e-15 -3.523834871e-15)
(0 -2.118471615e-15 -3.17444036e-15)
(0 -1.82382486e-15 -2.868959027e-15)
(0 -1.559404544e-15 -2.603901994e-15)
(0 -1.320756181e-15 -2.376124045e-15)
(0 -1.103880327e-15 -2.182836152e-15)
(0 -9.051606885e-16 -2.021609973e-15)
(0 -7.212993143e-16 -1.89037716e-15)
(0 -5.492578115e-16 -1.787425621e-15)
(0 -3.862035314e-16 -1.711394386e-15)
(0 -2.29460473e-16 -1.661268283e-15)
(0 -7.617029146e-17 -1.636373341e-15)
(0 0.1007276342 -0.2743858534)
(0 -0.3164038546 -0.7338501447)
(0 -0.6260449832 -1.274946793)
(0 -0.7260635814 -1.516506716)
(0 -0.5344723843 -1.217320722)
(0 -0.1813035014 -0.5069099047)
(0 0.01924095843 0.01240248664)
(0 -0.001072945209 -0.004456601253)
(0 -3.462302027e-14 -3.089417315e-17)
(0 -6.849581884e-14 -5.741060682e-15)
(0 -6.64584163e-14 -1.109287099e-14)
(0 -6.342473129e-14 -1.579812085e-14)
(0 -5.955316816e-14 -1.96716195e-14)
(0 -5.511408113e-14 -2.262545123e-14)
(0 -5.036716991e-14 -2.465930213e-14)
(0 -4.553742873e-14 -2.583922556e-14)
(0 -4.080288881e-14 -2.627326335e-14)
(0 -3.629236958e-14 -2.608958404e-14)
(0 -3.208977417e-14 -2.541971885e-14)
(0 -2.824170957e-14 -2.438732225e-14)
(0 -2.476606682e-14 -2.31017274e-14)
(0 -2.166010871e-14 -2.1655137e-14)
(0 -1.890734155e-14 -2.012228657e-14)
(0 -1.648294061e-14 -1.856161056e-14)
(0 -1.435778621e-14 -1.701718994e-14)
(0 -1.250130605e-14 -1.552099122e-14)
(0 -1.088336427e-14 -1.409509202e-14)
(0 -9.47543007e-15 -1.275372296e-14)
(0 -8.251226471e-15 -1.15050467e-14)
(0 -7.187020333e-15 -1.035265203e-14)
(0 -6.261675986e-15 -9.296774009e-15)
(0 -5.456561974e-15 -8.335267978e-15)
(0 -4.755373812e-15 -7.464372071e-15)
(0 -4.143915409e-15 -6.679293661e-15)
(0 -3.609866946e-15 -5.974652603e-15)
(0 -3.142556431e-15 -5.344810294e-15)
(0 -2.73274485e-15 -4.784109115e-15)
(0 -2.372429961e-15 -4.287042577e-15)
(0 -2.054670631e-15 -3.84837265e-15)
(0 -1.773431659e-15 -3.463207405e-15)
(0 -1.523447912e-15 -3.12704935e-15)
(0 -1.300105978e-15 -2.835822537e-15)
(0 -1.099341331e-15 -2.585884709e-15)
(0 -9.175489162e-16 -2.374029262e-15)
(0 -7.515051853e-16 -2.197480694e-15)
(0 -5.982997078e-16 -2.053886284e-15)
(0 -4.552746877e-16 -1.941306067e-15)
(0 -3.199708515e-16 -1.858202631e-15)
(0 -1.900790761e-16 -1.803431868e-15)
(0 -6.310276357e-17 -1.776235454e-15)
(0 0.1393938799 -0.1010051259)
(0 -0.10390835 -0.4068515792)
(0 -0.4655800764 -0.9977706821)
(0 -0.7012651603 -1.492263007)
(0 -0.639141732 -1.458634843)
(0 -0.3155064305 -0.816414243)
(0 0.007333104601 -0.05427898225)
(0 -0.0006894846666 -0.005595579585)
(0 -3.783039307e-14 -6.450783084e-17)
(0 -7.467491767e-14 -7.315054377e-15)
(0 -7.202846793e-14 -1.401917505e-14)
(0 -6.813283777e-14 -1.979900388e-14)
(0 -6.325064454e-14 -2.442157288e-14)
(0 -5.776194398e-14 -2.780066482e-14)
(0 -5.20156119e-14 -2.997529298e-14)
(0 -4.629695392e-14 -3.107029477e-14)
(0 -4.081619191e-14 -3.125685066e-14)
(0 -3.571175024e-14 -3.072092733e-14)
(0 -3.106147088e-14 -2.964172598e-14)
(0 -2.689657528e-14 -2.817914492e-14)
(0 -2.32151866e-14 -2.646810011e-14)
(0 -1.999383349e-14 -2.461745272e-14)
(0 -1.719642526e-14 -2.271167489e-14)
(0 -1.47807914e-14 -2.081389245e-14)
(0 -1.270315648e-14 -1.896940875e-14)
(0 -1.092100142e-14 -1.720917481e-14)
(0 -9.394737632e-15 -1.555292447e-14)
(0 -8.088552e-15 -1.401185685e-14)
(0 -6.970701361e-15 -1.259084576e-14)
(0 -6.013461728e-15 -1.129020795e-14)
(0 -5.19287717e-15 -1.010708619e-14)
(0 -4.48840629e-15 -9.036509925e-15)
(0 -3.882529843e-15 -8.072194211e-15)
(0 -3.360358614e-15 -7.207130988e-15)
(0 -2.909263998e-15 -6.434018445e-15)
(0 -2.518542678e-15 -5.745566242e-15)
(0 -2.179119796e-15 -5.134706752e-15)
(0 -1.883290738e-15 -4.594736177e-15)
(0 -1.624499241e-15 -4.119404056e-15)
(0 -1.397148315e-15 -3.702965434e-15)
(0 -1.196439992e-15 -3.340206541e-15)
(0 -1.018239904e-15 -3.026452199e-15)
(0 -8.58962905e-16 -2.757561115e-15)
(0 -7.154763115e-16 -2.529913654e-15)
(0 -5.850177109e-16 -2.340395466e-15)
(0 -4.651246874e-16 -2.186379474e-15)
(0 -3.535741586e-16 -2.065708032e-15)
(0 -2.483293331e-16 -1.97667654e-15)
(0 -1.474932954e-16 -1.918019466e-15)
(0 -4.897387669e-17 -1.888899396e-15)
(0 0.1082030267 -0.02842518084)
(0 0.01618220938 -0.1611607209)
(0 -0.3060573654 -0.6684875839)
(0 -0.6460333612 -1.342428704)
(0 -0.724363212 -1.610071692)
(0 -0.4565152258 -1.150249536)
(0 -0.02608920474 -0.2609981484)
(0 0.001042260782 -0.004642394648)
(0 -4.191959803e-14 -3.26404645e-16)
(0 -8.249901348e-14 -9.461323034e-15)
(0 -7.894236581e-14 -1.7868998e-14)
(0 -7.382712912e-14 -2.49564143e-14)
(0 -6.75548291e-14 -3.041437804e-14)
(0 -6.066780124e-14 -3.417991341e-14)
(0 -5.363679986e-14 -3.63706785e-14)
(0 -4.681898641e-14 -3.72097358e-14)
(0 -4.045352138e-14 -3.696295089e-14)
(0 -3.467724489e-14 -3.589564505e-14)
(0 -2.954799176e-14 -3.424723767e-14)
(0 -2.50680837e-14 -3.221956164e-14)
(0 -2.120437462e-14 -2.997419739e-14)
(0 -1.790368349e-14 -2.763500574e-14)
(0 -1.510378127e-14 -2.529315707e-14)
(0 -1.274067447e-14 -2.301294752e-14)
(0 -1.075306857e-14 -2.083743409e-14)
(0 -9.084821763e-15 -1.87934177e-14)
(0 -7.686046306e-15 -1.689560604e-14)
(0 -6.513351358e-15 -1.514995722e-14)
(0 -5.529577575e-15 -1.355628764e-14)
(0 -4.703260771e-15 -1.211025864e-14)
(0 -4.007977959e-15 -1.080485971e-14)
(0 -3.421669992e-15 -9.631495189e-15)
(0 -2.925994875e-15 -8.580765594e-15)
(0 -2.505739642e-15 -7.643017843e-15)
(0 -2.1483022e-15 -6.808723104e-15)
(0 -1.843244739e-15 -6.068727931e-15)
(0 -1.581914785e-15 -5.414413484e-15)
(0 -1.357127265e-15 -4.837789071e-15)
(0 -1.162899888e-15 -4.331539585e-15)
(0 -9.942341441e-16 -3.889041321e-15)
(0 -8.46934676e-16 -3.504356791e-15)
(0 -7.174605521e-16 -3.17221627e-15)
(0 -6.028027862e-16 -2.887991649e-15)
(0 -5.003832667e-16 -2.647666612e-15)
(0 -4.079710057e-16 -2.447805966e-15)
(0 -3.236122745e-16 -2.285526121e-15)
(0 -2.455717535e-16 -2.158468121e-15)
(0 -1.722822856e-16 -2.064774157e-15)
(0 -1.023019317e-16 -2.003068223e-15)
(0 -3.398269297e-17 -1.972441315e-15)
(0 0.09098838119 0.0009569068314)
(0 0.06703333917 -0.01449717669)
(0 -0.1476352568 -0.3400463425)
(0 -0.5454312248 -1.084848376)
(0 -0.7717146412 -1.647604032)
(0 -0.6125636369 -1.473127226)
(0 -0.1312035016 -0.5918607204)
(0 0.004173016091 -0.01629874236)
(0 -4.696468157e-14 -7.780861664e-16)
(0 -9.229992316e-14 -1.23651834e-14)
(0 -8.752355919e-14 -2.303740283e-14)
(0 -8.067821782e-14 -3.174204756e-14)
(0 -7.247414364e-14 -3.809870926e-14)
(0 -6.371824444e-14 -4.213340528e-14)
(0 -5.504543429e-14 -4.411755748e-14)
(0 -4.688922631e-14 -4.443502138e-14)
(0 -3.950210116e-14 -4.348970122e-14)
(0 -3.299603702e-14 -4.165165204e-14)
(0 -2.738538746e-14 -3.923221916e-14)
(0 -2.262353501e-14 -3.647785515e-14)
(0 -1.86306307e-14 -3.35742856e-14)
(0 -1.531279317e-14 -3.065535023e-14)
(0 -1.257436704e-14 -2.781310649e-14)
(0 -1.032506841e-14 -2.510738792e-14)
(0 -8.483626661e-15 -2.257402304e-14)
(0 -6.979173377e-15 -2.023149981e-14)
(0 -5.751277155e-15 -1.80861557e-14)
(0 -4.749233599e-15 -1.613609936e-14)
(0 -3.931002782e-15 -1.437410253e-14)
(0 -3.262033804e-15 -1.278968743e-14)
(0 -2.714113717e-15 -1.13706031e-14)
(0 -2.26431217e-15 -1.010384705e-14)
(0 -1.894052497e-15 -8.976354769e-15)
(0 -1.588316124e-15 -7.975450072e-15)
(0 -1.334974086e-15 -7.089125788e-15)
(0 -1.124233059e-15 -6.306206019e-15)
(0 -9.481809371e-16 -5.616427074e-15)
(0 -8.004168387e-16 -5.010463853e-15)
(0 -6.757514901e-16 -4.479920733e-15)
(0 -5.699655209e-16 -4.017300406e-15)
(0 -4.796149411e-16 -3.615960098e-15)
(0 -4.018747617e-16 -3.270061654e-15)
(0 -3.344132476e-16 -2.974519965e-15)
(0 -2.752906286e-16 -2.724952693e-15)
(0 -2.228772197e-16 -2.517633311e-15)
(0 -1.75786842e-16 -2.349448686e-15)
(0 -1.32822194e-16 -2.217862029e-15)
(0 -9.292943507e-17 -2.120881672e-15)
(0 -5.5160454e-17 -2.057035929e-15)
(0 -1.83469693e-17 -2.025354197e-15)
(0 0.1074467251 0.01394084273)
(0 0.09696735445 0.05764806497)
(0 0.009109529491 -0.0577844128)
(0 -0.3765562254 -0.7364659055)
(0 -0.7434910146 -1.540164683)
(0 -0.7687890754 -1.73495759)
(0 -0.3303011899 -1.012027469)
(0 0.006828298991 -0.08434147685)
(0 -5.340865173e-14 -5.348651119e-16)
(0 -1.049544987e-13 -1.626446579e-14)
(0 -9.831922997e-14 -3.017006955e-14)
(0 -8.888843554e-14 -4.087363151e-14)
(0 -7.794618682e-14 -4.810377912e-14)
(0 -6.668664947e-14 -5.213687811e-14)
(0 -5.593841595e-14 -5.353102364e-14)
(0 -4.619113015e-14 -5.292325947e-14)
(0 -3.767015204e-14 -5.090947357e-14)
(0 -3.041976283e-14 -4.798936683e-14)
(0 -2.437419488e-14 -4.455243525e-14)
(0 -1.941015014e-14 -4.08856136e-14)
(0 -1.53818697e-14 -3.718994859e-14)
(0 -1.214250439e-14 -3.359916432e-14)
(0 -9.555818963e-15 -3.019665093e-14)
(0 -7.501591014e-15 -2.702956151e-14)
(0 -5.877180462e-15 -2.411983129e-14)
(0 -4.596954422e-15 -2.147244415e-14)
(0 -3.590645862e-15 -1.908144448e-14)
(0 -2.801298191e-15 -1.693419848e-14)
(0 -2.183165646e-15 -1.501434478e-14)
(0 -1.69976134e-15 -1.330378946e-14)
(0 -1.322137571e-15 -1.178401875e-14)
(0 -1.027421661e-15 -1.043693343e-14)
(0 -7.975979007e-16 -9.245353267e-15)
(0 -6.185106616e-16 -8.193297984e-15)
(0 -4.790581474e-16 -7.266119653e-15)
(0 -3.705460246e-16 -6.450538849e-15)
(0 -2.861726197e-16 -5.734620553e-15)
(0 -2.206209239e-16 -5.107714307e-15)
(0 -1.697364408e-16 -4.560375078e-15)
(0 -1.302735089e-16 -4.084275715e-15)
(0 -9.969592441e-17 -3.672118039e-15)
(0 -7.602041925e-17 -3.317547037e-15)
(0 -5.76938251e-17 -3.015070848e-15)
(0 -4.349661304e-17 -2.759988082e-15)
(0 -3.24669979e-17 -2.54832328e-15)
(0 -2.38409924e-17 -2.376770816e-15)
(0 -1.700473969e-17 -2.242647297e-15)
(0 -1.145618603e-17 -2.143852324e-15)
(0 -6.774456492e-18 -2.07883744e-15)
(0 -2.300960147e-18 -2.046583059e-15)
(0 0.1511251386 0.02242123238)
(0 0.1398054266 0.08306943402)
(0 0.1385965013 0.1205086469)
(0 -0.1345405428 -0.3304853058)
(0 -0.5948967532 -1.258583217)
(0 -0.8807896152 -1.867555857)
(0 -0.5882598509 -1.47295116)
(0 0.004714176657 -0.2674839113)
(0 -6.264325108e-14 -1.37967999e-15)
(0 -1.224900691e-13 -2.23409625e-14)
(0 -1.121327249e-13 -4.050146801e-14)
(0 -9.861192738e-14 -5.347589542e-14)
(0 -8.373739024e-14 -6.13044881e-14)
(0 -6.914548895e-14 -6.47789077e-14)
(0 -5.583181565e-14 -6.494660346e-14)
(0 -4.426767624e-14 -6.281799894e-14)
(0 -3.456820852e-14 -5.923611698e-14)
(0 -2.66389987e-14 -5.484441885e-14)
(0 -2.028163423e-14 -5.010297067e-14)
(0 -1.526104835e-14 -4.532255203e-14)
(0 -1.134418142e-14 -4.07009826e-14)
(0 -8.319495512e-15 -3.635488887e-14)
(0 -6.004764231e-15 -3.234489767e-14)
(0 -4.248248765e-15 -2.869446085e-14)
(0 -2.926509302e-15 -2.540335135e-14)
(0 -1.94078657e-15 -2.245703463e-14)
(0 -1.213031481e-15 -1.983299845e-14)
(0 -6.821339007e-16 -1.750491417e-14)
(0 -3.005937651e-16 -1.544529098e-14)
(0 -3.17077767e-17 -1.362710503e-14)
(0 1.527423121e-16 -1.202474467e-14)
(0 2.743533175e-16 -1.061450889e-14)
(0 3.495829508e-16 -9.374820463e-15)
(0 3.909174907e-16 -8.286262344e-15)
(0 4.077850495e-16 -7.331509514e-15)
(0 4.072660415e-16 -6.495202996e-15)
(0 3.946436052e-16 -5.763796204e-15)
(0 3.738286354e-16 -5.125392404e-15)
(0 3.476871014e-16 -4.569584668e-15)
(0 3.182915189e-16 -4.087304875e-15)
(0 2.871137371e-16 -3.670685244e-15)
(0 2.551724295e-16 -3.312933909e-15)
(0 2.231457074e-16 -3.008224931e-15)
(0 1.914569392e-16 -2.751602411e-15)
(0 1.603400458e-16 -2.538898051e-15)
(0 1.298891405e-16 -2.366661339e-15)
(0 1.000962982e-16 -2.23210151e-15)
(0 7.088042172e-17 -2.133040491e-15)
(0 4.210881134e-17 -2.067876129e-15)
(0 1.390741244e-17 -2.035555127e-15)
(0 0.20736047 0.02787062905)
(0 0.2008556454 0.08695193764)
(0 0.2174425003 0.1765790743)
(0 0.1328728785 0.0502987696)
(0 -0.3012666373 -0.801884599)
(0 -0.8807954472 -1.787704523)
(0 -0.841045374 -1.895901759)
(0 -0.006368833716 -0.6208008177)
(0 -7.482375051e-14 -4.259763174e-15)
(0 -1.454650796e-13 -3.231988464e-14)
(0 -1.294541629e-13 -5.601455271e-14)
(0 -1.096914556e-13 -7.122024273e-14)
(0 -8.924919911e-14 -7.885808662e-14)
(0 -7.032876482e-14 -8.072784183e-14)
(0 -5.397750719e-14 -7.865931749e-14)
(0 -4.048064367e-14 -7.416701184e-14)
(0 -2.969657195e-14 -6.837349263e-14)
(0 -2.128661652e-14 -6.204996697e-14)
(0 -1.485232806e-14 -5.569304129e-14)
(0 -1.000816207e-14 -4.960104729e-14)
(0 -6.414206537e-15 -4.393682106e-14)
(0 -3.786419459e-15 -3.877469694e-14)
(0 -1.895390946e-15 -3.413370862e-14)
(0 -5.600446985e-16 -3.000010461e-14)
(0 3.602457561e-16 -2.634211874e-14)
(0 9.733984804e-16 -2.311936386e-14)
(0 1.3614746e-15 -2.028860655e-14)
(0 1.586409276e-15 -1.780716664e-14)
(0 1.694643495e-15 -1.563479311e-14)
(0 1.720784979e-15 -1.373458567e-14)
(0 1.690458563e-15 -1.207333559e-14)
(0 1.622502541e-15 -1.062152644e-14)
(0 1.530648649e-15 -9.353147114e-15)
(0 1.424800287e-15 -8.245411814e-15)
(0 1.312001201e-15 -7.278444234e-15)
(0 1.197167286e-15 -6.434959402e-15)
(0 1.083637972e-15 -5.699961651e-15)
(0 9.735906126e-16 -5.060467983e-15)
(0 8.683510883e-16 -4.50526055e-15)
(0 7.68625915e-16 -4.024668735e-15)
(0 6.746750418e-16 -3.610379563e-15)
(0 5.864398934e-16 -3.255274315e-15)
(0 5.03637673e-16 -2.953288859e-15)
(0 4.258302671e-16 -2.699295231e-15)
(0 3.524740743e-16 -2.489002115e-15)
(0 2.829555488e-16 -2.318872153e-15)
(0 2.166161084e-16 -2.186054269e-15)
(0 1.527691949e-16 -2.088329491e-15)
(0 9.07109068e-17 -2.024069036e-15)
(0 3.002004123e-17 -1.992203694e-15)
(0 0.2658805188 0.02896958728)
(0 0.2671524584 0.08657377955)
(0 0.2748799669 0.1617886792)
(0 0.298693239 0.2362949517)
(0 0.09641780845 -0.2445948261)
(0 -0.7013632386 -1.425938555)
(0 -1.014018968 -2.171021057)
(0 -0.02603130669 -1.172175712)
(0 -9.250862768e-14 -9.009043596e-15)
(0 -1.771861807e-13 -4.925966238e-14)
(0 -1.51033083e-13 -8.000873139e-14)
(0 -1.214554613e-13 -9.652803748e-14)
(0 -9.324498934e-14 -1.021796102e-13)
(0 -6.894671983e-14 -1.006166239e-13)
(0 -4.927098567e-14 -9.479776821e-14)
(0 -3.398185139e-14 -8.681899317e-14)
(0 -2.245116365e-14 -7.804224706e-14)
(0 -1.395854736e-14 -6.928990637e-14)
(0 -7.832714556e-15 -6.101885788e-14)
(0 -3.504828125e-15 -5.345221752e-14)
(0 -5.178310681e-16 -4.66708342e-14)
(0 1.483616928e-15 -4.067353338e-14)
(0 2.769828097e-15 -3.541522559e-14)
(0 3.543341117e-15 -3.083017356e-14)
(0 3.954231449e-15 -2.68456696e-14)
(0 4.112725627e-15 -2.338969296e-14)
(0 4.099165737e-15 -2.039488529e-14)
(0 3.971679533e-15 -1.780033619e-14)
(0 3.77198721e-15 -1.55521109e-14)
(0 3.529749749e-15 -1.360309068e-14)
(0 3.26580154e-15 -1.191246826e-14)
(0 2.99454179e-15 -1.044509824e-14)
(0 2.725697575e-15 -9.170815405e-15)
(0 2.465620371e-15 -8.063780821e-15)
(0 2.218237461e-15 -7.101884975e-15)
(0 1.985748625e-15 -6.266218883e-15)
(0 1.769135025e-15 -5.540614408e-15)
(0 1.568529736e-15 -4.91124981e-15)
(0 1.383486349e-15 -4.366314249e-15)
(0 1.213172506e-15 -3.895724203e-15)
(0 1.056508157e-15 -3.49088491e-15)
(0 9.122631332e-16 -3.144490471e-15)
(0 7.791247912e-16 -2.850357001e-15)
(0 6.557436838e-16 -2.603283993e-15)
(0 5.40763124e-16 -2.398939815e-15)
(0 4.328369857e-16 -2.23376795e-15)
(0 3.306389596e-16 -2.104911194e-15)
(0 2.328656556e-16 -2.010151592e-15)