/*--------------------------------*- C++ -*----------------------------------*\
  =========                 |
  \\      /  F ield         | OpenFOAM: The Open Source CFD Toolbox
   \\    /   O peration     | Website:  https://openfoam.org
    \\  /    A nd           | Version:  6
     \\/     M anipulation  |
\*---------------------------------------------------------------------------*/
FoamFile
{
    version     2.0;
    format      ascii;
    class       volScalarField;
    location    "0.07";
    object      ViscousDissipation;
}
// * * * * * * * * * * * * * * * * * * * * * * * * * * * * * * * * * * * * * //

dimensions      [1 -1 -3 0 0 0 0];

internalField   nonuniform List<scalar> 
2500
(
20.23485457
11.90331378
0.3602822793
0.08868383264
0.3385316856
0.2756466472
0.1044316169
0.002115764548
0.0006264385782
1.585379733e-24
1.670865282e-26
3.307383799e-26
5.350053334e-26
7.492384253e-26
9.500176108e-26
1.118507872e-25
1.242322998e-25
1.315925252e-25
1.339864309e-25
1.319305078e-25
1.262301618e-25
1.178175283e-25
1.076214261e-25
9.647787449e-26
8.507977028e-26
7.395864639e-26
6.348930462e-26
5.390841319e-26
4.533976453e-26
3.782093416e-26
3.132802433e-26
2.5796748e-26
2.113923573e-26
1.725666613e-26
1.404821525e-26
1.141698546e-26
9.273594132e-27
7.538039898e-27
6.140365613e-27
5.020528661e-27
4.127788847e-27
3.419837889e-27
2.861825503e-27
2.425384372e-27
2.087717892e-27
1.830788628e-27
1.640631061e-27
1.50681531e-27
1.422145081e-27
1.470964049e-27
4.177903367
5.459671163
1.730815793
0.2016049487
0.07682374962
0.1959641824
0.09820774824
0.01624642157
0.0006301342488
1.617270114e-24
2.487048855e-26
4.108394676e-26
6.132768573e-26
8.2462072e-26
1.02124702e-25
1.184362262e-25
1.301819406e-25
1.36844132e-25
1.385177686e-25
1.357564167e-25
1.293951454e-25
1.20386374e-25
1.096699072e-25
9.808484655e-26
8.632126479e-26
7.490402413e-26
6.419920067e-26
5.443405915e-26
4.572325559e-26
3.809606427e-26
3.152139826e-26
2.592896719e-26
2.12260307e-26
1.730990642e-26
1.407676818e-26
1.142742108e-26
9.270748161e-27
7.525453597e-27
6.120623323e-27
4.995513053e-27
4.09887154e-27
3.388020298e-27
2.827841853e-27
2.389776008e-27
2.050885044e-27
1.793021154e-27
1.602107737e-27
1.467515343e-27
1.382472695e-27
2.136737151e-27
1.104857852
3.910348186
3.151478726
0.940765152
0.0417645118
0.05191121675
0.07195113118
0.03276332197
0.0005899754293
1.683986919e-24
4.216383544e-26
5.809460063e-26
7.791762569e-26
9.837741891e-26
1.170933413e-25
1.322081325e-25
1.425644448e-25
1.477232167e-25
1.478633144e-25
1.436140447e-25
1.358695813e-25
1.256214691e-25
1.138293837e-25
1.013362838e-25
8.882438909e-26
7.68032919e-26
6.562003455e-26
5.548183952e-26
4.648416385e-26
3.863900807e-26
3.190043439e-26
2.618582183e-26
2.139247143e-26
1.740983696e-26
1.412799716e-26
1.144310607e-26
9.260543955e-27
7.496406254e-27
6.077854318e-27
4.942735359e-27
4.038774298e-27
3.322552643e-27
2.758420523e-27
2.317436008e-27
1.976388152e-27
1.716933923e-27
1.524861395e-27
1.389479453e-27
1.303947868e-27
3.428745313e-27
0.1578756205
2.30353887
4.393357407
2.366690644
0.4585091421
0.01785496591
0.05793719647
0.03486414852
0.02424692456
1.789470205e-24
7.104489205e-26
8.640209672e-26
1.053575908e-25
1.245102171e-25
1.414792853e-25
1.544667171e-25
1.624227381e-25
1.650417328e-25
1.626373791e-25
1.559556637e-25
1.459779158e-25
1.337498946e-25
1.202551193e-25
1.06336037e-25
9.265721488e-26
7.970029542e-26
6.777969332e-26
5.70694271e-26
4.763383046e-26
3.945732968e-26
3.247055548e-26
2.657161041e-26
2.164234356e-26
1.756008294e-26
1.420555834e-26
1.14678219e-26
9.246926289e-27
7.455012737e-27
6.01633431e-27
4.866615696e-27
3.952042966e-27
3.228088246e-27
2.658305853e-27
2.213185667e-27
1.869113404e-27
1.60746297e-27
1.413830585e-27
1.277410674e-27
1.191261558e-27
5.269826514e-27
0.3632104786
0.5530013676
4.545003207
4.380325097
1.530705389
0.1576110974
0.05161842525
0.02175033256
0.08041927094
1.942528635e-24
1.159139038e-25
1.300700551e-25
1.472858409e-25
1.640197826e-25
1.779420816e-25
1.873824881e-25
1.914752707e-25
1.901209614e-25
1.838278237e-25
1.735004526e-25
1.602306737e-25
1.45125499e-25
1.291868972e-25
1.132432026e-25
9.792329847e-26
8.36613605e-26
7.072020101e-26
5.922341995e-26
4.91893606e-26
4.056250531e-26
3.324005878e-26
2.709296045e-26
2.198150406e-26
1.776624433e-26
1.431507101e-26
1.150734209e-26
9.235876539e-27
7.407471643e-27
5.942466118e-27
4.773738374e-27
3.845417768e-27
3.111498307e-27
2.534477164e-27
2.084091743e-27
1.736195154e-27
1.471787588e-27
1.276207236e-27
1.138475041e-27
1.051482728e-27
7.550839048e-27
1.549257346
0.141564113
2.700750598
5.883056038
3.574446354
0.5168708131
0.02679264254
0.00805168798
0.1083297675
2.157618066e-24
1.842376852e-25
1.958176579e-25
2.096088194e-25
2.21944046e-25
2.306463907e-25
2.342924705e-25
2.323159569e-25
2.249192252e-25
2.128724799e-25
1.972763352e-25
1.793441515e-25
1.602351671e-25
1.409476551e-25
1.222667743e-25
1.04754536e-25
8.876758649e-26
7.449010072e-26
6.197212063e-26
5.116692016e-26
4.196376068e-26
3.421447239e-26
2.775366448e-26
2.241315298e-26
1.803156114e-26
1.446013787e-26
1.156577273e-26
9.232042306e-27
7.358955501e-27
5.861904207e-27
4.67018629e-27
3.725354569e-27
2.979558397e-27
2.393980312e-27
1.937424956e-27
1.585086896e-27
1.317504441e-27
1.11969504e-27
9.804602321e-28
8.924864746e-28
1.013542038e-26
2.836234513
1.921200252
0.448055683
4.728341271
6.122387214
1.561961039
0.01375984623
0.003332695489
0.07544075582
2.456728889e-24
2.8816858e-25
2.944914235e-25
3.017147135e-25
3.061383655e-25
3.059504727e-25
3.001812347e-25
2.887354327e-25
2.722375199e-25
2.517856187e-25
2.286949886e-25
2.04283629e-25
1.797233847e-25
1.559577236e-25
1.336745377e-25
1.133175176e-25
9.512012626e-26
7.914934924e-26
6.535031274e-26
5.358645177e-26
4.367269394e-26
3.540102483e-26
2.855893765e-26
2.294183437e-26
1.836062927e-26
1.464576207e-26
1.164866907e-26
9.241560696e-27
7.316154486e-27
5.781836751e-27
4.56358198e-27
3.59984711e-27
2.840574897e-27
2.245381737e-27
1.781965207e-27
1.424740798e-27
1.153701723e-27
9.534874116e-28
8.126414229e-28
7.236123874e-28
1.286803597e-26
3.252685571
4.506470378
0.267430605
1.894541764
6.684853788
3.56632794
0.1554974544
0.004719650857
0.03231392205
2.87352481e-24
4.47713743e-25
4.436995839e-25
4.385554978e-25
4.288281355e-25
4.135019797e-25
3.924153878e-25
3.661895707e-25
3.360038361e-25
3.033215009e-25
2.696401896e-25
2.363072592e-25
2.044112986e-25
1.747409364e-25
1.477930387e-25
1.23811026e-25
1.028370444e-25
8.476634398e-26
6.939673754e-26
5.646963294e-26
4.570164696e-26
3.680733445e-26
2.951433631e-26
2.357251179e-26
1.875857908e-26
1.487759097e-26
1.176231892e-26
9.271364826e-27
7.286595516e-27
5.710311005e-27
4.462415613e-27
3.477755686e-27
2.703713488e-27
2.098096505e-27
1.627329117e-27
1.264934359e-27
9.902832848e-28
7.875853855e-28
6.450921489e-28
5.549844766e-28
1.558296889e-26
3.679694297
5.660745544
2.463030042
0.09934505859
4.680430337
5.791206139
0.8242288436
0.00230168047
0.03080068947
3.458981164e-24
6.966748552e-25
6.725828405e-25
6.442713968e-25
6.092005161e-25
5.679873499e-25
5.218632383e-25
4.724805364e-25
4.216664807e-25
3.711888534e-25
3.225767858e-25
2.77016122e-25
2.353158933e-25
1.979289248e-25
1.650055969e-25
1.364620684e-25
1.120493024e-25
9.14145777e-26
7.415155826e-26
5.983805316e-26
4.80624286e-26
3.844051572e-26
3.062511383e-26
2.431007486e-26
1.923066385e-26
1.51615411e-26
1.191337553e-26
9.328807729e-27
7.278248029e-27
5.655816755e-27
4.375604986e-27
3.36834438e-27
2.578515319e-27
1.961885602e-27
1.483450749e-27
1.115736649e-27
8.374221344e-28
6.322403028e-28
4.881204011e-28
3.969487708e-28
1.811404271e-26
1.261243767
4.388207698
5.229381099
0.6825132987
2.163335997
7.551435219
2.399744996
0.008560337537
0.04383052505
4.298987411e-24
1.093471305e-24
1.030479092e-24
9.585839605e-25
8.777657265e-25
7.919226712e-25
7.045840054e-25
6.187261826e-25
5.367199276e-25
4.603177315e-25
3.90674363e-25
3.284034324e-25
2.736634003e-25
2.262592469e-25
1.857453107e-25
1.515183131e-25
1.228943443e-25
9.91677663e-26
7.965288159e-26
6.371081732e-26
5.076468709e-26
4.030606436e-26
3.189542885e-26
2.515873877e-26
1.978176351e-26
1.550335094e-26
1.210842595e-26
9.421227001e-27
7.299074763e-27
5.626818579e-27
4.312007916e-27
3.280774101e-27
2.474372199e-27
1.846315213e-27
1.360027009e-27
9.869418292e-28
7.049840294e-28
4.973696632e-28
3.516796298e-28
2.594825612e-28
2.030459479e-26
0.2437768159
2.237296963
6.390337488
3.342471464
0.3742895174
7.557734941
5.164727754
0.185975219
0.03187830043
5.501712173e-24
1.738803591e-24
1.603249797e-24
1.448399464e-24
1.283781578e-24
1.12009699e-24
9.64341083e-25
8.207037369e-25
6.91378328e-25
5.771694695e-25
4.7793154e-25
3.928909633e-25
3.208885775e-25
2.6056208e-25
2.104799554e-25
1.692351991e-25
1.355063452e-25
1.080929451e-25
8.593205782e-26
6.810140902e-26
5.381381966e-26
4.240643605e-26
3.332733462e-26
2.612127494e-26
2.041574961e-26
1.590801472e-26
1.235345521e-26
9.555417702e-27
7.356501785e-27
5.631217509e-27
4.279873469e-27
3.223543188e-27
2.399957301e-27
1.76017865e-27
1.265932058e-27
8.874772762e-28
6.019305555e-28
3.919564487e-28
2.447656948e-28
1.51590143e-28
2.201714237e-26
0.01284857586
0.7118886427
5.302630274
6.662146387
0.4769216219
5.274437067
8.258533676
1.038468967
0.4082690116
7.348870622e-24
2.832692471e-24
2.549322358e-24
2.229802927e-24
1.907986667e-24
1.606571584e-24
1.336248711e-24
1.100635792e-24
8.993816089e-25
7.300563149e-25
5.892715206e-25
4.733322738e-25
3.78607314e-25
3.017283822e-25
2.396850213e-25
1.898558463e-25
1.500022419e-25
1.182411472e-25
9.300760133e-26
7.301375431e-26
5.720839843e-26
4.473931146e-26
3.491954676e-26
2.719807216e-26
2.113471292e-26
1.637910166e-26
1.265321401e-26
9.737024396e-27
7.456822059e-27
5.675759562e-27
4.286252377e-27
3.203898433e-27
2.362636423e-27
1.710907869e-27
1.208629195e-27
8.248159705e-28
5.357321116e-28
3.234627932e-28
1.748312545e-28
8.071779742e-29
2.314216108e-26
0.04635338993
0.0986642157
2.899649661
8.782224105
3.307745233
1.846201198
10.72785529
3.515472068
9.824714158
1.066685891e-23
4.845301609e-24
4.179954253e-24
3.509568595e-24
2.88402384e-24
2.335360837e-24
1.871819228e-24
1.489398116e-24
1.178847738e-24
9.293926715e-25
7.305554046e-25
5.729507794e-25
4.48545146e-25
3.506507242e-25
2.738007601e-25
2.135819865e-25
1.664628696e-25
1.296354614e-25
1.008777133e-25
7.843752482e-26
6.093716099e-26
4.729559034e-26
3.666602501e-26
2.838605871e-26
2.193808173e-26
1.691798792e-26
1.301051794e-26
9.969881999e-27
7.604563753e-27
5.765423806e-27
4.33640056e-27
3.227251532e-27
2.367895661e-27
1.704011015e-27
1.193617089e-27
8.044302523e-28
5.118280374e-28
2.972953012e-28
1.472550589e-28
5.222576227e-29
2.360540795e-26
0.1088190766
0.1093180812
0.7770347285
7.881400113
8.739475032
0.2890267414
11.08393428
8.722370564
97.67948642
1.605104359e-23
8.675274674e-24
7.080297535e-24
5.651832767e-24
4.431422127e-24
3.435593462e-24
2.645369233e-24
2.028899853e-24
1.552945736e-24
1.187727262e-24
9.084264984e-25
6.951675163e-25
5.324000993e-25
4.081273347e-25
3.131695434e-25
2.405347391e-25
1.849090196e-25
1.422566131e-25
1.095116118e-25
8.434286253e-26
6.497570662e-26
5.005722051e-26
3.855445014e-26
2.967755106e-26
2.282168756e-26
1.752305321e-26
1.342552749e-26
1.025535288e-26
7.801869774e-27
5.902835719e-27
4.433220869e-27
3.296645347e-27
2.418829124e-27
1.742578922e-27
1.223952545e-27
8.293284464e-28
5.331747423e-28
3.16362363e-28
1.649061502e-28
6.895700534e-29
2.337326979e-26
0.1352518206
0.1958993003
0.05846351601
3.796613347
13.93193531
4.640343817
7.846307256
16.76570914
526.1827196
2.560113847e-23
1.602129512e-23
1.232569513e-23
9.287633444e-24
6.905151219e-24
5.101666732e-24
3.761128072e-24
2.773952743e-24
2.049934638e-24
1.519304477e-24
1.129861681e-24
8.432632322e-25
6.316175979e-25
4.747217138e-25
3.579517298e-25
2.707054442e-25
2.052731273e-25
1.560267481e-25
1.188401945e-25
9.067489797e-26
6.928315663e-26
5.299504451e-26
4.056473069e-26
3.105913486e-26
2.37768659e-26
1.818891842e-26
1.389507789e-26
1.059172428e-26
8.047948563e-27
6.087762473e-27
4.576796654e-27
3.41232092e-27
2.515735224e-27
1.826906869e-27
1.299894175e-27
8.997170441e-28
5.999231196e-28
3.807636301e-28
2.278423118e-28
1.309415965e-28
2.245570644e-26
0.1374136274
0.1733659142
0.2033414807
0.4322850816
12.44590759
16.18629441
2.744686454
25.15736011
1878.089448
4.541874428e-23
3.125115822e-23
2.212653292e-23
1.554310508e-23
1.087462571e-23
7.617881926e-24
5.358909323e-24
3.79212858e-24
2.701773495e-24
1.938790707e-24
1.401281045e-24
1.019821561e-24
7.470624085e-25
5.505762416e-25
4.080222208e-25
3.038991134e-25
2.273686126e-25
1.707928204e-25
1.287469494e-25
9.734865392e-26
7.379916652e-26
5.606692728e-26
4.266772926e-26
3.251072276e-26
2.478970897e-26
1.890582322e-26
1.4412145e-26
1.097374277e-26
8.338665301e-27
6.316753038e-27
4.764074733e-27
3.571438136e-27
2.655870376e-27
1.954276951e-27
1.418709309e-27
1.012828219e-27
7.092629329e-28
4.876476908e-28
3.331775868e-28
2.352707026e-28
2.090648599e-26
0.1251110399
0.1269132356
0.2076495964
0.132719009
4.763581457
26.20666677
3.302231589
28.46013101
4862.128349
8.936383199e-23
6.386463364e-23
4.07195684e-23
2.633881915e-23
1.720929605e-23
1.137462101e-23
7.61175724e-24
5.15865017e-24
3.540119232e-24
2.458744612e-24
1.727089759e-24
1.225929077e-24
8.785927583e-25
6.351899522e-25
4.628561717e-25
3.396762857e-25
2.508605137e-25
1.86311792e-25
1.390604433e-25
1.042451432e-25
7.844179798e-26
5.921650049e-26
4.482444283e-26
3.400496382e-26
2.584060755e-26
1.965925578e-26
1.496554202e-26
1.139236708e-26
8.666344457e-27
6.58298537e-27
4.988752692e-27
3.7679988e-27
2.833403566e-27
2.118940011e-27
1.574679294e-27
1.162944716e-27
8.554636735e-28
6.312654665e-28
4.751449355e-28
3.76165318e-28
1.882057182e-26
0.1043680564
0.1043566009
0.1084665103
0.2906080957
0.3316383591
20.05012009
16.23438707
22.42181692
9593.103051
1.815496067e-22
1.338106153e-22
7.579341416e-23
4.471412587e-23
2.711397001e-23
1.684677074e-23
1.070381534e-23
6.942273654e-24
4.588524902e-24
3.085571856e-24
2.107649308e-24
1.460178125e-24
1.024577361e-24
7.271877065e-25
5.214202599e-25
3.773026944e-25
2.752426958e-25
2.022405992e-25
1.495500578e-25
1.112096303e-25
8.310683857e-26
6.237289972e-26
4.698589394e-26
3.550719037e-26
2.690422377e-26
2.0429947e-26
1.553993809e-26
1.183481483e-26
9.019846471e-27
6.876373326e-27
5.241414817e-27
3.993009404e-27
3.039603271e-27
2.312323749e-27
1.759325813e-27
1.34164142e-27
1.030128574e-27
8.03233979e-28
6.453671943e-28
5.452519227e-28
1.632871072e-26
0.08485785534
0.09290664216
0.0714210834
0.1833268114
0.1264395008
7.922180686
32.58215259
9.951609718
14901.69067
3.310310698e-22
2.784001504e-22
1.395435927e-22
7.472459659e-23
4.194488862e-23
2.448185881e-23
1.477454637e-23
9.17933322e-24
5.85067693e-24
3.814250043e-24
2.536926416e-24
1.717627106e-24
1.181441793e-24
8.241268791e-25
5.820935938e-25
4.157192316e-25
2.998281178e-25
2.18134288e-25
1.599267983e-25
1.180530717e-25
8.766916005e-26
6.545185996e-26
4.909397319e-26
3.697607024e-26
2.795001738e-26
2.119432177e-26
1.611627038e-26
1.228495845e-26
9.384961723e-27
7.183966551e-27
5.509941828e-27
4.234902191e-27
3.263269871e-27
2.523475719e-27
1.961863269e-27
1.538245775e-27
1.22266163e-27
9.93008578e-28
8.333331492e-28
7.32041051e-28
1.358947514e-26
0.06835382539
0.07721748905
0.073674913
0.1044160263
0.3903273943
1.373953269
39.06455255
0.897370105
18470.27876
6.262021183e-22
5.471466469e-22
2.449042185e-22
1.197833778e-22
6.257220148e-23
3.446226885e-23
1.982925488e-23
1.183935303e-23
7.296916505e-24
4.622988539e-24
3.000383713e-24
1.988986111e-24
1.343371143e-24
9.22401887e-25
6.426470961e-25
4.53546082e-25
3.237588982e-25
2.334556447e-25
1.698508559e-25
1.24557612e-25
9.1986597e-26
6.835844954e-26
5.108340627e-26
3.836507704e-26
2.894340174e-26
2.192545943e-26
1.667258444e-26
1.272409269e-26
9.745134226e-27
7.490648041e-27
5.780192965e-27
4.480208107e-27
3.491403212e-27
2.73972768e-27
2.169861185e-27
1.740498966e-27
1.420928003e-27
1.188542822e-27
1.027057072e-27
9.245865766e-28
1.077921359e-26
0.05245751347
0.05796620856
0.07675314483
0.06630488776
0.2908412787
0.4392147862
31.4861546
2.450371822
18086.82956
1.670165671e-21
9.464605088e-22
3.922389127e-22
1.792819478e-22
8.845529716e-23
4.642973339e-23
2.565053459e-23
1.479506148e-23
8.853877316e-24
5.469718401e-24
3.473888592e-24
2.26035742e-24
1.502312193e-24
1.017309765e-24
7.003094467e-25
4.891335479e-25
3.460417682e-25
2.475988182e-25
1.789470429e-25
1.304866447e-25
9.590658001e-26
7.099155151e-26
5.288489497e-26
3.962479773e-26
2.98475314e-26
2.259455419e-26
1.71852861e-26
1.313205112e-26
1.008248809e-26
7.780099036e-27
6.036927446e-27
4.714446634e-27
3.71006873e-27
2.947543526e-27
2.370077965e-27
1.935378565e-27
1.612068011e-27
1.377095893e-27
1.213881376e-27
1.110285234e-27
8.080544751e-27
0.03604691512
0.04046656855
0.06432247167
0.06546384413
0.1185483624
1.144568385
21.71910913
10.64909999
14333.92179
3.765947336e-21
1.405857601e-21
5.629848875e-22
2.471944228e-22
1.172661477e-22
5.937040827e-23
3.176239069e-23
1.781210857e-23
1.040237506e-23
6.292316526e-24
3.924391266e-24
2.513836055e-24
1.6484001e-24
1.103327497e-24
7.51939695e-25
5.206671972e-25
3.65611578e-25
2.599277048e-25
1.868281976e-25
1.355993258e-25
9.927536907e-26
7.324994801e-26
5.442930795e-26
4.070597118e-26
3.062562816e-26
2.317279177e-26
1.763072738e-26
1.348859849e-26
1.037908683e-26
8.035963786e-27
6.264899819e-27
4.923168706e-27
3.905399819e-27
3.133489779e-27
2.549406098e-27
2.110023688e-27
1.78340657e-27
1.546130032e-27
1.38136536e-27
1.276759665e-27
5.670172491e-27
0.02039193543
0.02646649864
0.04390258024
0.08813650165
0.04437927395
1.950419288
13.35488304
20.90910971
8994.993553
5.189145345e-21
1.851023881e-21
7.311478715e-22
3.140648377e-22
1.452686295e-22
7.170741063e-23
3.746394602e-23
2.056581966e-23
1.1786748e-23
7.013904255e-24
4.312905947e-24
2.729170737e-24
1.770878521e-24
1.174621238e-24
7.943099844e-25
5.463259489e-25
3.814206507e-25
2.698272113e-25
1.93125183e-25
1.396685891e-25
1.019492379e-25
7.503955586e-26
5.565259586e-26
4.156301229e-26
3.124365186e-26
2.363348192e-26
1.798698892e-26
1.377497749e-26
1.06183158e-26
8.243113316e-27
6.450035372e-27
5.093064515e-27
4.064652852e-27
3.28524881e-27
2.695852091e-27
2.25268848e-27
1.923385918e-27
1.684227424e-27
1.51819061e-27
1.41275632e-27
3.70688544e-27
0.008061291005
0.01623877607
0.02476862185
0.1072480127
0.06772111241
2.247174289
7.159358668
30.40108079
3730.500188
4.487898892e-21
2.211968991e-21
8.678717203e-22
3.68495395e-22
1.67865346e-22
8.152688224e-23
4.193056443e-23
2.268846462e-23
1.28375007e-23
7.553870727e-24
4.599949317e-24
2.886482163e-24
1.859476906e-24
1.225754393e-24
8.244753683e-25
5.64478573e-25
3.925452184e-25
2.767621948e-25
1.975203867e-25
1.425007944e-25
1.038064445e-25
7.628105806e-26
5.650091589e-26
4.215765167e-26
3.167303495e-26
2.395422347e-26
1.823567381e-26
1.397545148e-26
1.078624866e-26
8.388883901e-27
6.580572604e-27
5.213032175e-27
4.177217994e-27
3.392583782e-27
2.799464834e-27
2.353641407e-27
2.02244211e-27
1.781949288e-27
1.615007509e-27
1.508983749e-27
2.320623104e-27
0.0013855994
0.01074499948
0.01459361587
0.1101234838
0.1439768913
2.127343239
5.599401887
35.19625525
457.4947577
3.063671038e-21
2.414291413e-21
9.448704262e-22
3.992555654e-22
1.805777602e-22
8.700518846e-23
4.439799075e-23
2.384922353e-23
1.340656402e-23
7.84371697e-24
4.752808823e-24
2.969669793e-24
1.906042676e-24
1.252487087e-24
8.401742776e-25
5.738889845e-25
3.982932678e-25
2.80335649e-25
1.997800791e-25
1.439543673e-25
1.047584236e-25
7.691695631e-26
5.693532341e-26
4.24622417e-26
3.189314913e-26
2.411884418e-26
1.836350399e-26
1.407866826e-26
1.087284748e-26
8.464157689e-27
6.648054109e-27
5.275099478e-27
4.235486735e-27
3.448163139e-27
2.853125795e-27
2.405928202e-27
2.073746613e-27
1.832561205e-27
1.665148792e-27
1.558818486e-27
1.603434353e-27
0.001385604734
0.01074500311
0.01459362249
0.1101234707
0.1439768468
2.127343133
5.599399422
35.19625087
457.4946815
3.063670648e-21
2.414291366e-21
9.448704011e-22
3.992555648e-22
1.805777684e-22
8.700519771e-23
4.439799844e-23
2.384922925e-23
1.340656806e-23
7.843719771e-24
4.752810748e-24
2.96967112e-24
1.906043598e-24
1.252487735e-24
8.401747386e-25
5.738893172e-25
3.982935111e-25
2.803358292e-25
1.997802139e-25
1.439544691e-25
1.04758501e-25
7.69170155e-26
5.693536874e-26
4.246227641e-26
3.189317561e-26
2.411886423e-26
1.836351898e-26
1.407867925e-26
1.087285529e-26
8.464162968e-27
6.648057365e-27
5.275101117e-27
4.235487083e-27
3.448162461e-27
2.853124305e-27
2.405926078e-27
2.073744001e-27
1.832558229e-27
1.665145559e-27
1.558815143e-27
1.603025249e-27
0.008061304859
0.01623878601
0.0247686391
0.1072479664
0.06772106217
2.247173634
7.159355368
30.40106915
3730.499108
4.487898106e-21
2.21196871e-21
8.678716137e-22
3.684953829e-22
1.678653662e-22
8.152690773e-23
4.193058626e-23
2.268848107e-23
1.283751242e-23
7.553878876e-24
4.599954937e-24
2.886486046e-24
1.859479609e-24
1.225756296e-24
8.244767252e-25
5.64479554e-25
3.925459371e-25
2.767627278e-25
1.975207863e-25
1.425010967e-25
1.038066748e-25
7.628123427e-26
5.650105104e-26
4.215775529e-26
3.167311412e-26
2.395428352e-26
1.82357188e-26
1.397548454e-26
1.078627223e-26
8.388899905e-27
6.580582555e-27
5.213037285e-27
4.177219236e-27
3.392581944e-27
2.799460558e-27
2.353635223e-27
2.022434459e-27
1.781940542e-27
1.61499799e-27
1.508973892e-27
2.319400593e-27
0.02039195138
0.02646651181
0.04390259368
0.08813646138
0.04437931173
1.950418734
13.35487977
20.90909974
8994.989561
5.189144062e-21
1.851023224e-21
7.311476353e-22
3.140647937e-22
1.452686514e-22
7.170744669e-23
3.746397874e-23
2.056584494e-23
1.178676626e-23
7.013917056e-24
4.312914828e-24
2.7291769e-24
1.770882828e-24
1.174624281e-24
7.943121622e-25
5.463275288e-25
3.81421812e-25
2.698280755e-25
1.93125833e-25
1.396690823e-25
1.019496147e-25
7.503984503e-26
5.56528183e-26
4.156318333e-26
3.124378293e-26
2.363358166e-26
1.798706393e-26
1.377503287e-26
1.061835552e-26
8.243140525e-27
6.450052555e-27
5.093073662e-27
4.064655566e-27
3.285246391e-27
2.695845601e-27
2.252678798e-27
1.923373776e-27
1.684213443e-27
1.518175329e-27
1.412740463e-27
3.704863916e-27
0.03604692396
0.04046657433
0.06432246206
0.0654638409
0.1185484398
1.144568122
21.71910406
10.64909815
14333.91506
3.765944635e-21
1.40585647e-21
5.62984494e-22
2.471943317e-22
1.172661611e-22
5.93704483e-23
3.176243021e-23
1.781214014e-23
1.040239828e-23
6.292332983e-24
3.924402771e-24
2.513844088e-24
1.648405744e-24
1.103331505e-24
7.519425779e-25
5.206692991e-25
3.656131308e-25
2.599288659e-25
1.86829075e-25
1.355999946e-25
9.92758823e-26
7.325034362e-26
5.442961355e-26
4.070620717e-26
3.06258098e-26
2.317293066e-26
1.76308324e-26
1.348867654e-26
1.037914331e-26
8.036002962e-27
6.264925091e-27
4.9231828e-27
3.905404939e-27
3.133487715e-27
2.549398322e-27
2.110011418e-27
1.783390828e-27
1.54611169e-27
1.381345172e-27
1.276738642e-27
5.667375894e-27
0.05245750674
0.05796618749
0.07675310315
0.06630485285
0.290840965
0.4392139103
31.4861368
2.450375082
18086.82327
1.670161632e-21
9.464589455e-22
3.922383946e-22
1.792818127e-22
8.845529706e-23
4.642977236e-23
2.565057721e-23
1.479509685e-23
8.853903826e-24
5.469737411e-24
3.47390199e-24
2.260366837e-24
1.50231885e-24
1.017314522e-24
7.003128903e-25
4.891360749e-25
3.460436472e-25
2.476002322e-25
1.789481182e-25
1.304874692e-25
9.590721643e-26
7.099204484e-26
5.288527817e-26
3.96250953e-26
2.984776177e-26
2.259473143e-26
1.718542105e-26
1.313215226e-26
1.008256208e-26
7.78015116e-27
6.036961928e-27
4.714466878e-27
3.710077496e-27
2.947543071e-27
2.370070148e-27
1.935364934e-27
1.612049872e-27
1.377074365e-27
1.213857439e-27
1.110260173e-27
8.077006486e-27
0.06835380234
0.07721742807
0.0736748293
0.1044157509
0.3903265419
1.373948235
39.06452956
0.8973623112
18470.27751
6.262002953e-22
5.471450103e-22
2.449036892e-22
1.197832212e-22
6.257218934e-23
3.44623045e-23
1.98292982e-23
1.183939024e-23
7.296944855e-24
4.623009058e-24
3.00039827e-24
1.988996406e-24
1.343378468e-24
9.224071583e-25
6.426509406e-25
4.535489254e-25
3.237610293e-25
2.334572612e-25
1.698520945e-25
1.245585689e-25
9.198734083e-26
6.835903011e-26
5.108386028e-26
3.836543197e-26
2.894367844e-26
2.19256739e-26
1.667274912e-26
1.272421734e-26
9.745226571e-27
7.490714239e-27
5.78023797e-27
4.480235927e-27
3.491417113e-27
2.739730345e-27
2.169854838e-27
1.740485469e-27
1.420908937e-27
1.188519554e-27
1.027030805e-27
9.245588605e-28
1.07749764e-26
0.08485784436
0.0929065803
0.0714209189
0.1833258397
0.1264395104
7.922161542
32.58216638
9.951584006
14901.69948
3.310299104e-22
2.783994416e-22
1.395431886e-22
7.472443828e-23
4.194486799e-23
2.448189142e-23
1.477458957e-23
9.179371144e-24
5.850706039e-24
3.81427119e-24
2.536941471e-24
1.717637802e-24
1.181449451e-24
8.241324305e-25
5.820976772e-25
4.157222794e-25
2.998304236e-25
2.181360533e-25
1.599281632e-25
1.180541354e-25
8.766999381e-26
6.545251596e-26
4.909449022e-26
3.697647761e-26
2.79503375e-26
2.119457202e-26
1.611646437e-26
1.228510692e-26
9.385073247e-27
7.184048006e-27
5.509998777e-27
4.234939159e-27
3.263290569e-27
2.523483211e-27
1.96186011e-27
1.538234121e-27
1.222643326e-27
9.929852301e-28
8.333061874e-28
7.320122747e-28
1.358459093e-26
0.1043681394
0.1043566695
0.1084664182
0.2906078991
0.331634957
20.05010156
16.23441875
22.42180693
9593.110622
1.815499722e-22
1.33810365e-22
7.579302816e-23
4.471395041e-23
2.711394319e-23
1.684680292e-23
1.070385916e-23
6.942311934e-24
4.588554064e-24
3.085592932e-24
2.107664292e-24
1.460188795e-24
1.024585042e-24
7.271933196e-25
5.214244284e-25
3.773058385e-25
2.752451003e-25
2.022424599e-25
1.495515115e-25
1.112107744e-25
8.31077439e-26
6.237361851e-26
4.698646547e-26
3.550764463e-26
2.690458393e-26
2.043023121e-26
1.554016069e-26
1.183498725e-26
9.019977893e-27
6.876471178e-27
5.241485143e-27
3.993057152e-27
3.039632522e-27
2.312337895e-27
1.759327702e-27
1.341633473e-27
1.03011288e-27
8.032123784e-28
6.45341341e-28
5.452238435e-28
1.63232403e-26
0.125111291
0.1269135785
0.2076503999
0.1327201598
4.763570459
26.20667854
3.302238398
28.46013585
4862.131049
8.936542655e-23
6.386412307e-23
4.071905088e-23
2.633861607e-23
1.720927231e-23
1.137465875e-23
7.611803719e-24
5.158688944e-24
3.540147963e-24
2.458765051e-24
1.72710419e-24
1.225939354e-24
8.786001946e-25
6.35195434e-25
4.628602875e-25
3.396794275e-25
2.508629464e-25
1.863136975e-25
1.390619494e-25
1.042463418e-25
7.844275643e-26
5.921726909e-26
4.482505988e-26
3.400545893e-26
2.58410039e-26
1.965957172e-26
1.49657922e-26
1.139256331e-26
8.666496295e-27
6.583100619e-27
4.988837743e-27
3.768058924e-27
2.833443134e-27
2.118962681e-27
1.57468816e-27
1.162942427e-27
8.55452543e-28
6.312475517e-28
4.751221091e-28
3.761398057e-28
1.881458456e-26
0.1374139369
0.1733665796
0.2033428789
0.4322845155
12.4459055
16.18629641
2.744685169
25.15737244
1878.09061
4.541959101e-23
3.12498589e-23
2.212585026e-23
1.554291085e-23
1.087462841e-23
7.617934238e-24
5.358960796e-24
3.792167884e-24
2.701801272e-24
1.938809971e-24
1.401294497e-24
1.019831132e-24
7.470693752e-25
5.505814307e-25
4.080261672e-25
3.039021682e-25
2.273710114e-25
1.707947252e-25
1.287484746e-25
9.734988262e-26
7.380016026e-26
5.60677328e-26
4.266838267e-26
3.251125237e-26
2.479013726e-26
1.890616823e-26
1.441242134e-26
1.097396231e-26
8.338837779e-27
6.316886446e-27
4.764175678e-27
3.571512102e-27
2.655921943e-27
1.954309976e-27
1.418727076e-27
1.012833567e-27
7.092583635e-28
4.876354582e-28
3.331597716e-28
2.352496921e-28
2.090005942e-26
0.1352518434
0.1958997622
0.05846423046
3.796617876
13.93193117
4.640335094
7.846318199
16.7657181
526.1831415
2.560012488e-23
1.601925893e-23
1.232502902e-23
9.287543446e-24
6.90521273e-24
5.101741285e-24
3.761185077e-24
2.773991711e-24
2.049960622e-24
1.519321975e-24
1.129873764e-24
8.432718367e-25
6.316239164e-25
4.747264836e-25
3.579554147e-25
2.707083437e-25
2.052754409e-25
1.560286135e-25
1.188417096e-25
9.067613458e-26
6.928416903e-26
5.299587457e-26
4.056541134e-26
3.105969239e-26
2.377732155e-26
1.818928948e-26
1.389537856e-26
1.059196626e-26
8.048141532e-27
6.087914473e-27
4.57691438e-27
3.41240997e-27
2.515800303e-27
1.826951961e-27
1.299922695e-27
8.997319678e-28
5.999270981e-28
3.807590848e-28
2.278315126e-28
1.309270456e-28
2.244892568e-26
0.1088185113
0.1093179317
0.7770372934
7.881405715
8.739469895
0.2890274812
11.08394789
8.722360153
97.6793601
1.604277031e-23
8.672792303e-24
7.080025499e-24
5.651961788e-24
4.431561307e-24
3.435688204e-24
2.645428062e-24
2.028936129e-24
1.552968678e-24
1.187742351e-24
9.084368686e-25
6.95174955e-25
5.324056419e-25
4.081315962e-25
3.131729007e-25
2.405374325e-25
1.849112085e-25
1.422584079e-25
1.095130921e-25
8.434408783e-26
6.497672271e-26
5.005806355e-26
3.855514921e-26
2.96781299e-26
2.282216572e-26
1.752344689e-26
1.342585021e-26
1.025561594e-26
7.802082637e-27
5.903006328e-27
4.433355894e-27
3.296750406e-27
2.418908964e-27
1.742637587e-27
1.223993516e-27
8.29354782e-28
5.33189192e-28
3.16367475e-28
1.649043554e-28
6.895086218e-29
2.336622694e-26
0.04635264702
0.09866453609
2.899652244
8.782230054
3.307745483
1.846205776
10.72785163
3.515448873
9.82476519
1.066377e-23
4.846896e-24
4.180769943e-24
3.509956517e-24
2.884212073e-24
2.335456998e-24
1.871871391e-24
1.489428231e-24
1.178866256e-24
9.29404792e-25
7.305638189e-25
5.729569324e-25
4.485498418e-25
3.506544272e-25
2.738037505e-25
2.135844411e-25
1.664649061e-25
1.296371624e-25
1.008791395e-25
7.843872282e-26
6.093816773e-26
4.729643585e-26
3.666673418e-26
2.838665234e-26
2.193857738e-26
1.691840047e-26
1.301086e-26
9.97016431e-27
7.604795417e-27
5.765612552e-27
4.336552943e-27
3.22737311e-27
2.367991157e-27
1.704084467e-27
1.193671985e-27
8.0446967e-28
5.118547691e-28
2.9731197e-28
1.472642152e-28
5.22299475e-29
2.35982013e-26
0.01284866643
0.7118891062
5.302631297
6.66215169
0.4769218376
5.27443575
8.258520495
1.038464696
0.4082834433
7.355349554e-24
2.834796178e-24
2.550078428e-24
2.230108395e-24
1.908123857e-24