/*--------------------------------*- C++ -*----------------------------------*\
  =========                 |
  \\      /  F ield         | OpenFOAM: The Open Source CFD Toolbox
   \\    /   O peration     | Website:  https://openfoam.org
    \\  /    A nd           | Version:  6
     \\/     M anipulation  |
\*---------------------------------------------------------------------------*/
FoamFile
{
    version     2.0;
    format      ascii;
    class       surfaceScalarField;
    location    "0.12";
    object      alphaPhi0.phase1;
}
// * * * * * * * * * * * * * * * * * * * * * * * * * * * * * * * * * * * * * //

dimensions      [0 3 -1 0 0 0 0];

internalField   nonuniform List<scalar> 
4900
(
-2.744228706e-21
-6.489539465e-21
5.162491196e-22
-2.521864629e-21
2.119375526e-21
-2.415069255e-22
3.305828751e-21
-5.537681225e-23
3.253058957e-21
6.131810637e-22
1.17068448e-21
9.118569321e-22
1.169495083e-21
1.189397149e-24
6.155557714e-18
3.090547819e-18
-1.06508073e-20
4.650148193e-24
-1.05590744e-20
-9.17329101e-23
-1.037796785e-20
-1.811090893e-22
-1.011436813e-20
-2.636054147e-22
-9.777452013e-21
-3.369247869e-22
-9.378201222e-21
-3.992623498e-22
-8.928702219e-21
-4.495134156e-22
-8.441428039e-21
-4.872914129e-22
-7.928592629e-21
-5.128554303e-22
-7.40162772e-21
-5.269876753e-22
-6.870803635e-21
-5.308495532e-22
-6.344993775e-21
-5.258379804e-22
-5.831567757e-21
-5.134567363e-22
-5.336389778e-21
-4.952112372e-22
-4.86389573e-21
-4.725297815e-22
-4.417223432e-21
-4.467104417e-22
-3.998373522e-21
-4.188903927e-22
-3.608382946e-21
-3.900333237e-22
-3.24749753e-21
-3.609303525e-22
-2.91533436e-21
-3.322102149e-22
-2.611028271e-21
-3.043551617e-22
-2.333359529e-21
-2.777197578e-22
-2.080861882e-21
-2.52550521e-22
-1.851911537e-21
-2.290049888e-22
-1.644798537e-21
-2.071693255e-22
-1.457782466e-21
-1.870739889e-22
-1.289134622e-21
-1.687072633e-22
-1.137168786e-21
-1.52026666e-22
-1.000262579e-21
-1.369683566e-22
-8.768712055e-22
-1.234547497e-22
-7.655351556e-22
-1.114005617e-22
-6.648831827e-22
-1.007175285e-22
-5.736316705e-22
-9.131801976e-23
-4.905812824e-22
-8.311775603e-23
-4.146116103e-22
-7.603780944e-23
-3.446743799e-22
-7.000604601e-23
-2.797856389e-22
-6.495814459e-23
-2.190172248e-22
-6.083831529e-23
-1.614876795e-22
-5.759985442e-23
-1.063525237e-22
-5.520578358e-23
-5.279307358e-23
-5.363030738e-23
-5.286407123e-23
-5.635183384e-21
-1.382847241e-20
-5.91784364e-22
-1.202857589e-20
-9.210001286e-23
-1.394126975e-21
3.01023443e-23
-1.802658799e-23
1.749377901e-22
9.948584721e-23
7.094029016e-23
1.155609204e-22
-1.137340007e-21
1.208829425e-21
-7.415942927e-18
3.249513949e-19
-1.074484862e-20
1.579407144e-24
-1.064842106e-20
-1.88165527e-22
-1.046045266e-20
-3.690880933e-22
-1.018767848e-20
-5.363956466e-22
-9.839784049e-21
-6.848404696e-22
-9.428450348e-21
-8.106223994e-22
-8.966481503e-21
-9.115136472e-22
-8.466995958e-21
-9.868133164e-22
-7.94273067e-21
-1.037161977e-21
-7.405496572e-21
-1.064267852e-21
-6.865799571e-21
-1.070597363e-21
-6.332620049e-21
-1.059072944e-21
-5.813329392e-21
-1.032807362e-21
-5.313714805e-21
-9.948902048e-22
-4.83808207e-21
-9.482311913e-22
-4.389408196e-21
-8.954571568e-22
-3.969520404e-21
-8.388550606e-22
-3.579283115e-21
-7.803513858e-22
-3.2187798e-21
-7.215181941e-22
-2.887481077e-21
-6.635970733e-22
-2.584394097e-21
-6.075337348e-22
-2.308191077e-21
-5.540176747e-22
-2.057316777e-21
-5.035228662e-22
-1.830076023e-21
-4.563467782e-22
-1.62470314e-21
-4.126460737e-22
-1.439415526e-21
-3.724681344e-22
-1.272453704e-21
-3.357781217e-22
-1.122110087e-21
-3.024816597e-22
-9.867485438e-22
-2.724434539e-22
-8.648165746e-22
-2.455022855e-22
-7.548516828e-22
-2.214828685e-22
-6.554832513e-22
-2.002050594e-22
-5.65431011e-22
-1.814908803e-22
-4.835009742e-22
-1.651697708e-22
-4.085795245e-22
-1.510824324e-22
-3.396261989e-22
-1.390835781e-22
-2.756655756e-22
-1.290438468e-22
-2.157785788e-22
-1.208511029e-22
-1.590934797e-22
-1.144112973e-22
-1.047770007e-22
-1.096490025e-22
-5.202680032e-23
-1.065074924e-22
-1.04946926e-22
-1.451731275e-20
-1.414214869e-20
-6.276450155e-21
-2.02218111e-20
-5.793715529e-23
-1.272988578e-20
-5.233421907e-24
-5.096355748e-22
-3.523037406e-24
-2.969674987e-24
-1.881141427e-24
6.423085385e-24
7.078053899e-22
4.436284206e-22
-2.375486984e-17
-2.85358974e-19
-1.093277044e-20
-2.73438665e-24
-1.082930157e-20
-2.916385478e-22
-1.062773396e-20
-5.706645307e-22
-1.033610431e-20
-8.280388413e-22
-9.965554843e-21
-1.055408e-21
-9.529338089e-21
-1.246861657e-21
-9.041784368e-21
-1.399094266e-21
-8.517353151e-21
-1.51127577e-21
-7.969848869e-21
-1.584701772e-21
-7.411840685e-21
-1.622315755e-21
-6.854290709e-21
-1.628191189e-21
-6.306369909e-21
-1.607041638e-21
-5.775426779e-21
-1.563802339e-21
-5.267068923e-21
-1.503303765e-21
-4.785319469e-21
-1.430040101e-21
-4.332815732e-21
-1.348023991e-21
-3.91102459e-21
-1.260712827e-21
-3.520456132e-21
-1.170989876e-21
-3.160863409e-21
-1.081184232e-21
-2.831421187e-21
-9.931157667e-22
-2.530880408e-21
-9.081540112e-22
-2.257697758e-21
-8.272827147e-22
-2.010141474e-21
-7.511642953e-22
-1.786375557e-21
-6.802004597e-22
-1.584525027e-21
-6.145868467e-22
-1.402725043e-21
-5.543607003e-22
-1.239156566e-21
-4.994413751e-22
-1.092071076e-21
-4.496639805e-22
-9.598065e-22
-4.048067716e-22
-8.407962578e-22
-3.646130367e-22
-7.335729847e-22
-3.288082752e-22
-6.367682202e-22
-2.971134392e-22
-5.491091056e-22
-2.692549493e-22
-4.6941291e-22
-2.449721177e-22
-3.965800238e-22
-2.240225254e-22
-3.295859073e-22
-2.061858156e-22
-2.674723618e-22
-1.91266287e-22
-2.093383963e-22
-1.790945967e-22
-1.543309013e-22
-1.695288146e-22
-1.016352914e-22
-1.624549893e-22
-5.04660946e-23
-1.577872788e-22
-1.55467632e-22
-1.711029788e-20
-8.217963568e-21
-1.370917814e-20
-1.995196809e-20
-3.960044157e-21
-1.96445325e-20
-1.254605746e-22
-9.731099263e-21
-1.767301741e-24
-7.537051614e-23
-2.923125918e-23
2.40293347e-24
3.197084231e-22
6.141320981e-23
-3.654845561e-17
-4.945280421e-19
-1.122308208e-20
-4.380803211e-24
-1.110827786e-20
-4.064468565e-22
-1.088506653e-20
-7.938845286e-22
-1.056344393e-20
-1.149674754e-21
-1.015699197e-20
-1.46187772e-21
-9.68156654e-21
-1.722309231e-21
-9.153972337e-21
-1.926714941e-21
-8.590793853e-21
-2.074485004e-21
-8.007483202e-21
-2.168047391e-21
-7.41773967e-21
-2.212098405e-21
-6.833165821e-21
-2.212808228e-21
-6.263154751e-21
-2.177099888e-21
-5.714950667e-21
-2.112057502e-21
-5.193825316e-21
-2.024483997e-21
-4.703320641e-21
-1.920603356e-21
-4.245518982e-21
-1.805887823e-21
-3.821313283e-21
-1.684984176e-21
-3.430659587e-21
-1.561712583e-21
-3.072801791e-21
-1.439114278e-21
-2.746464351e-21
-1.31952857e-21
-2.450012424e-21
-1.204684285e-21
-2.181581348e-21
-1.095794991e-21
-1.939178618e-21
-9.936509436e-22
-1.720762132e-21
-8.987034479e-22
-1.524298479e-21
-8.111394459e-22
-1.347804894e-21
-7.30945538e-22
-1.189378064e-21
-6.57961624e-22
-1.047212585e-21
-5.919249045e-22
-9.196113933e-22
-5.325052928e-22
-8.049901017e-22
-4.793334018e-22
-7.018767814e-22
-4.320222719e-22
-6.089084273e-22
-3.901839317e-22
-5.248250623e-22
-3.534417742e-22
-4.484622162e-22
-3.214396049e-22
-3.787423358e-22
-2.938480885e-22
-3.146655322e-22
-2.703692042e-22
-2.55299962e-22
-2.507392056e-22
-1.997720446e-22
-2.347304878e-22
-1.472566469e-22
-2.221526729e-22
-9.696729076e-23
-2.128531549e-22
-4.814630224e-23
-2.067172864e-22
-2.036684204e-22
-1.149266089e-20
-1.036991569e-21
-1.629009176e-20
-1.035841562e-20
-1.109509139e-20
-1.924936041e-20
-1.360873316e-21
-1.718499495e-20
-1.882968998e-24
-5.244388248e-21
-3.198195054e-23
1.147070779e-24
-1.201225659e-22
1.179316323e-22
-3.472699591e-17
-9.803744426e-19
-1.162715063e-20
-5.821292131e-24
-1.149564654e-20
-5.379550217e-22
-1.12407971e-20
-1.048742631e-21
-1.087560599e-20
-1.514879164e-21
-1.041740221e-20
-1.920099244e-21
-9.885969185e-21
-2.25376437e-21
-9.301754517e-21
-2.510956053e-21
-8.684379696e-21
-2.691890543e-21
-8.051565041e-21
-2.800896978e-21
-7.418484086e-21
-2.845218435e-21
-6.797492881e-21
-2.833842577e-21
-6.198146364e-21
-2.776493535e-21
-5.62740827e-21
-2.68284662e-21
-5.089972028e-21
-2.561975061e-21
-4.588628337e-21
-2.422005565e-21
-4.124634433e-21
-2.269943833e-21
-3.698056895e-21
-2.111627295e-21
-3.308072979e-21
-1.951765436e-21
-2.953224729e-21
-1.7940347e-21
-2.631626135e-21
-1.641202446e-21
-2.341127084e-21
-1.495261599e-21
-2.079439558e-21
-1.357563629e-21
-1.844232059e-21
-1.228942271e-21
-1.633198064e-21
-1.10982385e-21
-1.444103772e-21
-1.000322587e-21
-1.274819667e-21
-9.003207958e-22
-1.123339695e-21
-8.095349126e-22
-9.877911272e-22
-7.275688125e-22
-8.664375684e-22
-6.53956074e-22
-7.576770327e-22
-5.881929017e-22
-6.600365588e-22
-5.297633108e-22
-5.721644895e-22
-4.781580259e-22
-4.928212468e-22
-4.328883615e-22
-4.208692101e-22
-3.934961658e-22
-3.55262133e-22
-3.595607298e-22
-2.95034396e-22
-3.307034062e-22
-2.392902926e-22
-3.065905361e-22
-1.871934668e-22
-2.869351642e-22
-1.379565558e-22
-2.7149792e-22
-9.083103914e-23
-2.600873548e-22
-4.509724529e-23
-2.525599722e-22
-2.488201516e-22
-1.434565013e-21
-4.100183154e-22
-1.063890851e-20
-8.970362163e-22
-1.445293902e-20
-9.55167382e-21
-8.017309043e-21
-1.772618893e-20
-4.452496177e-23
-1.323361877e-20
8.823321343e-25
-7.590563208e-22
-5.886505051e-22
3.350176819e-22
-1.685934393e-17
-1.893490397e-18
-1.216154132e-20
-8.479007033e-24
-1.200633751e-20
-6.931629062e-22
-1.170685237e-20
-1.348236434e-21
-1.128077289e-20
-1.940971947e-21
-1.075104273e-20
-2.449847151e-21
-1.014316192e-20
-2.861667302e-21
-9.482710615e-21
-3.171433813e-21
-8.793422307e-21
-3.381209578e-21
-8.0959314e-21
-3.498422826e-21
-7.407156816e-21
-3.534032106e-21
-6.74019219e-21
-3.50085036e-21
-6.104544796e-21
-3.41218807e-21
-5.506577331e-21
-3.280865122e-21
-4.95003755e-21
-3.118569679e-21
-4.436595787e-21
-2.93550586e-21
-3.966341439e-21
-2.740260301e-21
-3.538213418e-21
-2.539820912e-21
-3.15035608e-21
-2.339691727e-21
-2.800402441e-21
-2.144060527e-21
-2.485692046e-21
-1.955988139e-21
-2.203433285e-21
-1.77759864e-21
-1.950820333e-21
-1.610257711e-21
-1.725114211e-21
-1.454732236e-21
-1.523696215e-21
-1.311328271e-21
-1.344100564e-21
-1.180007105e-21
-1.184031805e-21
-1.060480725e-21
-1.041371264e-21
-9.522887865e-22
-9.141758709e-22
-8.548595627e-22
-8.006718172e-22
-7.675573668e-22
-6.992448964e-22
-6.897188031e-22
-6.084288313e-22
-6.20679957e-22
-5.268925351e-22
-5.59796363e-22
-4.534269481e-22
-5.064573089e-22
-3.869318815e-22
-4.60095772e-22
-3.264031416e-22
-4.201950488e-22
-2.709200914e-22
-3.862929359e-22
-2.196337242e-22
-3.579841442e-22
-1.717552655e-22
-3.349214868e-22
-1.265452734e-22
-3.168162605e-22
-8.330317854e-23
-3.034381445e-22
-4.135718603e-23
-2.946148678e-22
-2.902318361e-22
-2.383032876e-22
-1.570133109e-22
-1.124004229e-21
-3.227024167e-22
-9.26414124e-21
-6.72281502e-22
-1.21976066e-20
-8.518562067e-21
-3.72727292e-21
-1.599613225e-20
-2.497545474e-22
-8.093982595e-21
-1.393542492e-21
6.492860521e-22
1.273937514e-19
-4.481358598e-18
-1.285022977e-20
-1.400144338e-23
-1.266128363e-20
-8.821131377e-22
-1.229948037e-20
-1.710048362e-21
-1.178958213e-20
-2.45088349e-21
-1.116283787e-20
-3.076609174e-21
-1.04529387e-20
-3.571588599e-21
-9.692523464e-21
-3.931875514e-21
-8.91069029e-21
-4.163073492e-21
-8.131604694e-21
-4.277543378e-21
-7.374041581e-21
-4.291634322e-21
-6.651593969e-21
-4.223341145e-21
-5.973280266e-21
-4.090548933e-21
-5.344332893e-21
-3.909863553e-21
-4.767016656e-21
-3.695940773e-21
-4.241385163e-21
-3.461195908e-21
-3.765929568e-21
-3.21577804e-21
-3.338105172e-21
-2.967710927e-21
-2.954740186e-21
-2.723125691e-21
-2.612340675e-21
-2.486532252e-21
-2.307309378e-21
-2.261094761e-21
-2.036096193e-21
-2.04889013e-21
-1.795296391e-21
-1.851138668e-21
-1.581710055e-21
-1.668402445e-21
-1.392373611e-21
-1.500751167e-21
-1.224571885e-21
-1.347897726e-21
-1.07583701e-21
-1.209306798e-21
-9.439388639e-22
-1.084280295e-21
-8.268703595e-22
-9.720234526e-22
-7.228299352e-22
-8.716950592e-22
-6.30202829e-22
-7.82444919e-22
-5.475421847e-22
-7.034412116e-22
-4.735506467e-22
-6.33889971e-22
-4.070628283e-22
-5.730485165e-22
-3.470288479e-22
-5.202343207e-22
-2.924990027e-22
-4.748305016e-22
-2.426095641e-22
-4.362888822e-22
-1.965696236e-22
-4.041313532e-22
-1.536488878e-22
-3.779501136e-22
-1.131662962e-22
-3.574072272e-22
-7.447932895e-23
-3.422338328e-22
-3.697386835e-23
-3.322292571e-22
-3.272602171e-22
-9.858920744e-23
-2.312778188e-23
-2.133705188e-22
-2.195988213e-22
-8.098530664e-22
-2.655800456e-22
-7.843876528e-21
-7.579175665e-22
-9.385677243e-21
-7.011277904e-21
-1.695565519e-21
-1.168782377e-20
-1.242123265e-21
-7.573113092e-22
3.997995411e-19
-7.01642185e-18
-1.372602981e-20
-2.148086175e-23
-1.348903803e-20
-1.119109013e-21
-1.304017555e-20
-2.158919513e-21
-1.241522963e-20
-3.075842721e-21
-1.165779751e-20
-3.834059065e-21
-1.081325356e-20
-4.416154694e-21
-9.923783159e-21
-4.821372385e-21
-9.025241841e-21
-5.061645564e-21
-8.145785546e-21
-5.157034643e-21
-7.305837778e-21
-5.13162121e-21
-6.518884749e-21
-5.010337366e-21
-5.79266814e-21
-4.816812722e-21
-5.130472175e-21
-4.572110595e-21
-4.532322529e-21
-4.294145298e-21
-3.99600741e-21
-3.997569604e-21
-3.517893112e-21
-3.693954505e-21
-3.093542488e-21
-3.392127196e-21
-2.71816257e-21
-3.098574611e-21
-2.386913573e-21
-2.817853489e-21
-2.095110853e-21
-2.552972832e-21
-1.838347545e-21
-2.305731771e-21
-1.61256052e-21
-2.077006878e-21
-1.414057344e-21
-1.866989522e-21
-1.239517496e-21
-1.675377496e-21
-1.085977469e-21
-1.501526677e-21
-9.508065354e-22
-1.34456896e-21
-8.316778176e-22
-1.203502405e-21
-7.265377168e-22
-1.07725897e-21
-6.335756374e-22
-9.647544376e-22
-5.51195153e-22
-8.64924444e-22
-4.779872317e-22
-7.767497742e-22
-4.127057805e-22
-6.992735231e-22
-3.542455488e-22
-6.316121684e-22
-3.016222885e-22
-5.729621801e-22
-2.539549933e-22
-5.226034351e-22
-2.104499965e-22
-4.799004168e-22
-1.703866946e-22
-4.443019537e-22
-1.331046575e-22
-4.153400713e-22
-9.799189864e-23
-3.926283902e-22
-6.447408705e-23
-3.758603941e-22
-3.20044959e-23
-3.648078055e-22
-3.593192406e-22
-2.646837995e-23
-2.633320286e-25
-8.837496216e-23
-1.05985225e-22
-1.626806265e-22
-1.97903247e-22
-7.634345854e-22
-3.280327715e-22
-3.983290395e-21
-7.940324716e-22
-2.10521087e-21
-2.729026445e-21
7.520758442e-21
-2.662144588e-20
-1.111849334e-17
-1.396645902e-18
-1.483565411e-20
-2.707287639e-23
-1.452857562e-20
-1.4261916e-21
-1.395691972e-20
-2.730584097e-21
-1.317335888e-20
-3.859416874e-21
-1.223988925e-20
-4.767546472e-21
-1.121853078e-20
-5.437535316e-21
-1.016415651e-20
-5.875773144e-21
-9.120751216e-21
-6.105081623e-21
-8.120496689e-21
-6.157324156e-21
-7.184672021e-21
-6.067485013e-21
-6.325465383e-21
-5.869587213e-21
-5.548055561e-21
-5.594269743e-21
-4.85258013e-21
-5.267637124e-21
-4.235804687e-21
-4.910975642e-21
-3.692436448e-21
-4.540996443e-21
-3.216098241e-21
-4.170354904e-21
-2.800012692e-21
-3.808278413e-21
-2.437456499e-21
-3.461199833e-21
-2.122041916e-21
-3.133340339e-21
-1.847874181e-21
-2.827215946e-21
-1.609623614e-21
-2.5440607e-21
-1.402541658e-21
-2.284170046e-21
-1.222442102e-21
-2.047173009e-21
-1.06566234e-21
-1.832243769e-21
-9.290147448e-22
-1.638263228e-21
-8.09734643e-22
-1.463940321e-21
-7.05428963e-22
-1.307901509e-21
-6.140278649e-22
-1.168755515e-21
-5.337405493e-22
-1.045139083e-21
-4.630157001e-22
-9.357483653e-22
-4.005065642e-22
-8.393595828e-22
-3.450404091e-22
-7.548418108e-22
-2.955919607e-22
-6.811640685e-22
-2.512603667e-22
-6.173984047e-22
-2.112492197e-22
-5.627202516e-22
-1.74849194e-22
-5.164070114e-22
-1.414228807e-22
-4.778355963e-22
-1.103914441e-22
-4.46479459e-22
-8.122276132e-23
-4.219055074e-22
-5.342074171e-23
-4.037711933e-22
-2.651555378e-23
-3.918219803e-22
-3.858893372e-22
5.068710308e-25
3.778972927e-28
-3.538242011e-23
-1.264781565e-23
-1.155674306e-22
-1.243471023e-22
-1.94020324e-22
-2.770708382e-22
-3.288924599e-22
-1.194936036e-21
-7.135206175e-22
-3.250612667e-21
1.654174887e-21
-1.598445432e-19
-2.714842252e-17
-9.870893197e-17
-1.62495153e-20
-9.759747206e-23
-1.583259009e-20
-1.843120918e-21
-1.50855269e-20
-3.477655971e-21
-1.408140122e-20
-4.86355588e-21
-1.290990984e-20
-5.939055629e-21
-1.165688249e-20
-6.690584826e-21
-1.039362411e-20
-7.139058027e-21
-9.173168522e-21
-7.325567992e-21
-8.030827557e-21
-7.299700121e-21
-6.986927351e-21
-7.111424371e-21
-6.050278399e-21
-6.806279391e-21
-5.221529356e-21
-6.423066004e-21
-4.496002199e-21
-5.993215399e-21
-3.865888767e-21
-5.541143996e-21
-3.321841053e-21
-5.085102779e-21
-2.854053923e-21
-4.638204247e-21
-2.452955226e-21
-4.209442804e-21
-2.109609594e-21
-3.804614519e-21
-1.815923701e-21
-3.427098524e-21
-1.564720419e-21
-3.078494633e-21
-1.34973111e-21
-2.759128399e-21
-1.165540498e-21
-2.4684419e-21
-1.00750727e-21
-2.205290196e-21
-8.716753475e-22
-1.968162233e-21
-7.546849737e-22
-1.755342586e-21
-6.536888772e-22
-1.565027707e-21
-5.662761554e-22
-1.395407685e-21
-4.904049161e-22
-1.244722233e-21
-4.243437139e-22
-1.111297648e-21
-3.666212645e-22
-9.935699185e-22
-3.159836385e-22
-8.900979135e-22
-2.713580281e-22
-7.995695857e-22
-2.31822175e-22
-7.208034052e-22
-1.965786014e-22
-6.527466406e-22
-1.649328646e-22
-5.944716895e-22
-1.362751467e-22
-5.451713298e-22
-1.100645783e-22
-5.041535253e-22
-8.58157801e-23
-4.708362393e-22
-6.308717474e-23
-4.447425779e-22
-4.14706862e-23
-4.25496492e-22
-2.058249118e-23
-4.128191924e-22
-4.065263866e-22
9.666768057e-29
7.126715047e-33
3.062473321e-24
9.151952194e-25
-6.466989289e-23
-4.447487321e-23
-2.759791669e-22
-8.412824617e-23
-5.406959381e-22
-8.436595892e-22
2.212066835e-19
-2.249161018e-19
2.553174915e-17
-2.547110513e-17
-3.800670738e-17
-1.604851163e-15
-1.80155448e-20
-1.728347731e-22
-1.746648171e-20
-2.392188098e-21
-1.647111784e-20
-4.473028526e-21
-1.515683278e-20
-6.177854265e-21
-1.366154321e-20
-7.434362991e-21
-1.21055608e-20
-8.246589405e-21
-1.058038173e-20
-8.66426361e-21
-9.147550316e-21
-8.7584302e-21
-7.842779386e-21
-8.604506065e-21
-6.681976315e-21
-8.27226661e-21
-5.667222143e-21
-7.821076806e-21
-4.791800827e-21
-7.298534556e-21
-4.044022059e-21
-6.741045305e-21
-3.409913125e-21
-6.175307873e-21
-2.874987507e-21
-5.620087042e-21
-2.425321475e-21
-5.087932517e-21
-2.04814385e-21
-4.586686147e-21
-1.73210161e-21
-4.120725838e-21
-1.467321448e-21
-3.691951005e-21
-1.245351404e-21
-3.30054011e-21
-1.059038894e-21
-2.945519326e-21
-9.02381245e-22
-2.625180819e-21
-7.70370735e-22
-2.337384695e-21
-6.588466873e-22
-2.079772851e-21
-5.643610485e-22
-1.84991724e-21
-4.840600566e-22
-1.645420019e-21
-4.155823374e-22
-1.46397889e-21
-3.569725127e-22
-1.303427568e-21
-3.066087809e-22
-1.161758773e-21
-2.631427007e-22
-1.037135134e-21
-2.254494044e-22
-9.278919461e-22
-1.92586585e-22
-8.325346014e-22
-1.637607733e-22
-7.497327324e-22
-1.382996148e-22
-6.783124932e-22
-1.156290453e-22
-6.172479919e-22
-9.525443264e-23
-5.656525745e-22
-7.674490827e-23
-5.227704418e-22
-5.972023878e-23
-4.879689222e-22
-4.383969505e-23
-4.607316179e-22
-2.879246538e-23
-4.406525626e-22
-1.428922701e-23
-4.274314786e-22
-4.208701872e-22
7.118911238e-33
7.283963345e-37
1.204982282e-25
1.031433823e-28
-5.901654175e-24
-5.209673001e-25
-3.685739026e-23
-3.52992266e-23
-7.22320946e-22
-1.402386079e-22
-2.061716937e-19
-1.942710012e-20
-2.314721289e-17
-2.526556382e-18
-2.901867135e-17
-1.857299258e-16
-2.027992443e-20
-4.147056575e-23
-1.954635504e-20
-3.125761587e-21
-1.817558082e-20
-5.843811438e-21
-1.641336082e-20
-7.940087593e-21
-1.447401756e-20
-9.373724046e-21
-1.25235897e-20
-1.019703945e-20
-1.067492505e-20
-1.051295477e-20
-8.99397485e-21
-1.043941121e-20
-7.510836652e-21
-1.008767929e-20
-6.231024462e-21
-9.552117983e-21
-5.144861917e-21
-8.907282611e-21
-4.234445088e-21
-8.208998639e-21
-3.478378476e-21
-7.497163074e-21
-2.854755068e-21
-6.798986245e-21
-2.342872216e-21
-6.13202856e-21
-1.924097016e-21
-5.506769978e-21
-1.582193057e-21
-4.928655848e-21
-1.303327683e-21
-4.399660316e-21
-1.075905697e-21
-3.919445335e-21
-8.903220912e-22
-3.486199175e-21
-7.386896948e-22
-3.097230167e-21
-6.145733369e-22
-2.749378474e-21
-5.127467569e-22
-2.439295292e-21
-4.289790912e-22
-2.163627117e-21
-3.5985232e-22
-1.919133056e-21
-3.026080987e-22
-1.702755591e-21
-2.550209814e-22
-1.511659523e-21
-2.15294533e-22
-1.343249557e-21
-1.819768208e-22
-1.195173909e-21
-1.538920411e-22
-1.065319081e-21
-1.300854091e-22
-9.517993459e-22
-1.097788479e-22
-8.529433903e-22
-9.233540554e-23
-7.672797217e-22
-7.723068099e-23
-6.935219434e-22
-6.402984963e-23
-6.305545875e-22
-5.236913707e-23
-5.774199505e-22
-4.19408071e-23
-5.33306195e-22
-3.248090501e-23
-4.975368687e-22
-2.375913857e-23
-4.695619114e-22
-1.557039062e-23
-4.489501822e-22
-7.727443264e-24
-4.353835041e-22
-4.286522191e-22
7.282964936e-37
9.984090527e-41
4.184191909e-29
2.156970291e-32
5.851043919e-24
1.953442687e-24
-1.620919269e-23
-8.51859664e-24
-8.745878484e-23
-6.428329335e-23
-1.733002551e-20
-2.173880673e-21
-2.193004143e-18
-3.498537765e-19
2.122325741e-18
-2.879257913e-17
-2.347725032e-20
-4.077302118e-22
-2.226382964e-20
-4.339186366e-21
-2.027165289e-20
-7.835996883e-21
-1.78472577e-20
-1.036449612e-20
-1.52978465e-20
-1.192315304e-20
-1.284009401e-20
-1.265481413e-20
-1.060193744e-20
-1.275113788e-20
-8.642714544e-21
-1.239866492e-20
-6.975648063e-21
-1.175478082e-20
-5.586468228e-21
-1.094133701e-20
-4.446777472e-21
-1.004701664e-20
-3.522745625e-21
-9.133077758e-21
-2.780289499e-21
-8.239670376e-21
-2.187849826e-21
-7.3914809e-21
-1.717640896e-21
-6.602296178e-21
-1.345992785e-21
-5.878480371e-21
-1.053195857e-21
-5.22151854e-21
-8.231036625e-22
-4.629821638e-21
-6.426460925e-22
-4.099975275e-21
-5.013372953e-22
-3.627583457e-21
-3.908212664e-22
-3.207824667e-21
-3.044733935e-22
-2.835807672e-21
-2.370623832e-22
-2.506790346e-21
-1.844697471e-22
-2.216306381e-21
-1.434606827e-22
-1.960231193e-21
-1.11499057e-22
-1.734808596e-21
-8.659925897e-23
-1.536652866e-21
-6.720832012e-23
-1.362736066e-21
-5.211256524e-23
-1.210367118e-21
-4.036395131e-23
-1.077166891e-21
-3.122209732e-23
-9.610419981e-22
-2.410874845e-23
-8.601589976e-22
-1.857205079e-23
-7.72919997e-22
-1.425853734e-23
-6.979402133e-22
-1.0891154e-23
-6.340277659e-22
-8.251999896e-24
-5.801657986e-22
-6.16873084e-24
-5.354969179e-22
-4.503792381e-24
-4.993098819e-22
-3.145818651e-24
-4.710284425e-22
-2.002664465e-24
-4.502022381e-22
-9.956378208e-25
-4.364996389e-22
-4.297024602e-22
9.720691969e-41
2.633985585e-42
2.154981118e-32
1.989169304e-35
3.287578048e-25
1.296781027e-27
-2.891527868e-24
3.465565864e-24
-3.261703802e-23
-3.263746039e-23
-1.743875955e-21
-4.590327047e-22
-2.691107294e-19
-8.21448127e-20
7.936359562e-18
-6.364909093e-18
-2.765779452e-20
-8.200268364e-22
-2.575958014e-20
-6.237404832e-21
-2.280014179e-20
-1.079544393e-20
-1.940662617e-20
-1.375802509e-20
-1.603046424e-20
-1.529933277e-20
-1.293734961e-20
-1.574795095e-20
-1.025025105e-20
-1.543826298e-20
-7.999439623e-21
-1.464950717e-20
-6.162647729e-21
-1.359160776e-20
-4.692454246e-21
-1.241156971e-20
-3.533039442e-21
-1.120647474e-20
-2.629461769e-21
-1.003670272e-20
-1.932169035e-21
-8.937014304e-21
-1.398696986e-21
-7.92500795e-21
-9.938325613e-22
-7.007219309e-21
-6.890230447e-22
-6.183352191e-21
-4.614819099e-22
-5.449125461e-21
-2.932353389e-22
-4.79813736e-21
-1.702301821e-22
-4.223052825e-21
-8.155406064e-23
-3.716335088e-21
-1.878056962e-23
-3.270676654e-21
2.456625699e-23
-2.879235849e-21
5.344220011e-23
-2.535750361e-21
7.162421702e-23
-2.234575053e-21
8.197884e-23
-1.970674917e-21
8.667180956e-23
-1.739592973e-21
8.733099422e-23
-1.537405624e-21
8.517252106e-23
-1.360673192e-21
8.109812705e-23
-1.206390208e-21
7.577010784e-23
-1.071938099e-21
6.966889153e-23
-9.550416095e-22
6.313717501e-23
-8.53729569e-22
5.641369151e-23
-7.663001208e-22
4.965899357e-23
-6.912903014e-22
4.297509968e-23
-6.274496967e-22
3.64204365e-23
-5.737178591e-22
3.002118599e-23
-5.292051508e-22
2.377989856e-23
-4.931766988e-22
1.768204371e-23
-4.650391743e-22
1.170102544e-23
-4.443301506e-22
5.802082019e-24
-4.307098326e-22
-4.239549953e-22
1.601893095e-34
8.542905391e-36
2.345451949e-34
6.052649424e-35
2.956567464e-28
3.029979759e-31
7.495192993e-24
6.32276526e-24
-1.829255616e-23
-5.110754084e-24
-2.413828794e-22
-4.738300727e-22
1.377802492e-19
-2.206646419e-19
1.624947933e-18
-2.232131009e-17
-3.355603569e-20
-1.665923219e-21
-3.031694907e-20
-9.476495547e-21
-2.576358798e-20
-1.534881372e-20
-2.094957245e-20
-1.857205397e-20
-1.648075232e-20
-1.976817071e-20
-1.262905712e-20
-1.959966836e-20
-9.462544782e-21
-1.860480186e-20
-6.942275419e-21
-1.716980737e-20
-4.983095326e-21
-1.555082292e-20
-3.487661401e-21
-1.390704286e-20
-2.363441413e-21
-1.233073803e-20
-1.529861491e-21
-1.087032994e-20
-9.201954657e-22
-9.546731538e-21
-4.809069409e-22
-8.364351494e-21
-1.699440924e-22
-7.318240883e-21
4.523565477e-23
-6.398594261e-21
1.895428384e-22
-5.593498451e-21
2.818868606e-22
-4.890550555e-21
3.365240778e-22
-4.277762457e-21
3.641385705e-22
-3.744025113e-21
3.726915385e-22
-3.279308142e-21
3.680799655e-22
-2.874705652e-21
3.546426784e-22
-2.52239717e-21
3.355466336e-22
-2.215565688e-21
3.130803993e-22
-1.948297809e-21
2.888763537e-22
-1.715480361e-21
2.640784519e-22
-1.512701323e-21
2.394685962e-22
-1.336158963e-21
2.155616112e-22
-1.182580734e-21
1.926764514e-22
-1.049152193e-21
1.709894403e-22
-9.33455454e-22
1.505739371e-22
-8.334163819e-22
1.314297622e-22
-7.472595814e-22
1.135048998e-22
-6.734702532e-22
9.671138493e-23
-6.107620348e-22
8.093681871e-23
-5.580500448e-22
6.60526043e-23
-5.144284479e-22
5.191973486e-23
-4.791519616e-22
3.839276614e-23
-4.516208201e-22
2.532245943e-23
-4.313688025e-22
1.255747243e-23
-4.180540103e-22
-4.114521531e-22
7.496651851e-36
3.377245531e-39
2.119243069e-31
2.513215517e-32
1.207116964e-30
2.275686631e-31
4.97450687e-24
3.936567932e-25
1.529230014e-26
6.215263052e-24
-4.019470864e-22
-1.779310244e-22
5.731499715e-20
-2.792595673e-19
-2.566848669e-17
-4.460091e-17
-4.219000168e-20
-3.991839939e-21
-3.619053038e-20
-1.547597094e-20
-2.898992664e-20
-2.254942615e-20
-2.214899651e-20
-2.541299746e-20
-1.631493984e-20
-2.56022452e-20
-1.163612192e-20
-2.427850849e-20
-8.028831562e-21
-2.221211877e-20
-5.324087563e-21
-1.987458221e-20
-3.339777128e-21
-1.753516843e-20
-1.911599065e-21
-1.533526016e-20
-9.031381624e-22
-1.333924225e-20
-2.062853154e-22
-1.156723011e-20
2.622091963e-22
-1.001527728e-20
5.652526124e-22
-8.667449946e-21
7.497620386e-22
-7.502809052e-21
8.503934404e-22
-6.499288004e-21
8.925506499e-22
-5.635721487e-21
8.947304854e-22
-4.892799582e-21
8.703115616e-22
-4.253415969e-21
8.289000619e-22
-3.702689166e-21
7.773331244e-22
-3.227819746e-21
7.204225276e-22
-2.817876453e-21
6.615037229e-22
-2.463562484e-21
6.028400751e-22
-2.156988744e-21
5.459199054e-22
-1.891466791e-21
4.916743981e-22
-1.661326312e-21
4.406371735e-22
-1.461757724e-21
3.930608958e-22
-1.288678337e-21
3.490022404e-22
-1.138619615e-21
3.083835597e-22
-1.008632792e-21
2.710373884e-22
-8.962101644e-22
2.367383107e-22
-7.992196463e-22
2.052255215e-22
-7.158504539e-22
1.76218542e-22
-6.445681144e-22
1.494279036e-22
-5.840772758e-22
1.245621416e-22
-5.332910609e-22
1.013320891e-22
-4.913059332e-22
7.945320718e-23
-4.573812382e-22
5.864649302e-23
-4.309227466e-22
3.863837296e-23
-4.114696671e-22
1.915988498e-23
-3.986847129e-22
-3.923469102e-22
1.568556445e-39
2.421173444e-43
2.025093504e-31
1.538063139e-32
2.731127846e-30
5.701511502e-31
1.010905017e-25
3.320181423e-28
6.221705365e-24
1.597051614e-24
-1.628973593e-22
-1.241073766e-28
-1.546727538e-19
-1.250198642e-19
-4.029979512e-17
-3.792407239e-17
-5.494603083e-20
-1.175066461e-20
-4.327186931e-20
-2.715013658e-20
-3.186116334e-20
-3.396014082e-20
-2.234404896e-20
-3.49301252e-20
-1.499505627e-20
-3.295125571e-20
-9.572091745e-21
-2.970149523e-20
-5.692643024e-21
-2.609159406e-20
-2.985381897e-21
-2.25818742e-20
-1.140191583e-21
-1.938039383e-20
8.43177407e-23
-1.655980873e-20
8.688933845e-22
-1.412386123e-20
1.34574698e-21
-1.204413103e-20
1.610141092e-21
-1.027972263e-20
1.73000376e-21
-8.787367664e-21
1.753388864e-21
-7.526252915e-21
1.714056476e-21
-6.460017973e-21
1.635558066e-21
-5.55728892e-21
1.534188493e-21
-4.791499219e-21
1.421102353e-21
-4.140402284e-21
1.303824132e-21
-3.585486519e-21
1.187322898e-21
-3.111397073e-21
1.074775938e-21
-2.705410912e-21
9.681109022e-22
-2.356981588e-21
8.683903781e-22
-2.057354946e-21
7.760844304e-22
-1.799250016e-21
6.912633979e-22
-1.57659676e-21
6.137339022e-22
-1.384321877e-21
5.431343602e-22
-1.21817447e-21
4.79001601e-22
-1.074584416e-21
4.208168466e-22
-9.505473409e-22
3.680369596e-22
-8.43531183e-22
3.201151748e-22
-7.514002277e-22
2.765143372e-22
-6.723533022e-22
2.367148144e-22
-6.048734565e-22
2.002186358e-22
-5.476870006e-22
1.665509721e-22
-4.997301996e-22
1.352597549e-22
-4.60122278e-22
1.059140025e-22
-4.281436684e-22
7.810125885e-23
-4.032186676e-22
5.142443191e-23
-3.849018485e-22
2.549823432e-23
-3.728677295e-22
-3.669033286e-22
2.419017365e-43
4.834987238e-47
8.511629972e-32
2.385072462e-33
5.261709372e-30
7.458543659e-31
1.073794481e-28
8.354238164e-31
3.217456005e-25
7.50776122e-27
3.20759788e-25
8.359000773e-28
-9.6554331e-20
-2.846521344e-20
-2.150514996e-17
-2.017949843e-17
-7.214624714e-20
-3.553852261e-20
-5.010471789e-20
-4.919166994e-20
-3.284561096e-20
-5.121925645e-20
-2.037357894e-20
-4.740217058e-20
-1.174985688e-20
-4.15749956e-20
-5.964496947e-21
-3.548687738e-20
-2.183966357e-21
-2.987215121e-20
2.157334763e-22
-2.498160489e-20
1.680373821e-21
-2.084506927e-20
2.520406777e-21
-1.739988094e-20
2.948827735e-21
-1.455232553e-20
3.110371551e-21
-1.220572219e-20
3.10270002e-21
-1.027210235e-20
2.991300255e-21
-8.676022962e-21
2.819780644e-21
-7.354792076e-21
2.616918345e-21
-6.257218047e-21
2.40145899e-21
-5.341895424e-21
2.185377981e-21
-4.575487436e-21
1.976094889e-21
-3.931191663e-21
1.777977191e-21
-3.387444412e-21
1.59336179e-21
-2.926860251e-21
1.423249031e-21
-2.535379589e-21
1.267773948e-21
-2.201590664e-21
1.126525657e-21
-1.916193401e-21