/*--------------------------------*- C++ -*----------------------------------*\
  =========                 |
  \\      /  F ield         | OpenFOAM: The Open Source CFD Toolbox
   \\    /   O peration     | Website:  https://openfoam.org
    \\  /    A nd           | Version:  6
     \\/     M anipulation  |
\*---------------------------------------------------------------------------*/
FoamFile
{
    version     2.0;
    format      ascii;
    class       volVectorField;
    location    "0.12";
    object      gradT;
}
// * * * * * * * * * * * * * * * * * * * * * * * * * * * * * * * * * * * * * //

dimensions      [0 -1 0 1 0 0 0];

internalField   nonuniform List<vector> 
2500
(
(0 -1547.331481 28348.92292)
(0 -3601.632872 24869.7968)
(0 -3722.294449 19559.14423)
(0 -2926.077827 14184.73448)
(0 -2234.968776 9575.274795)
(0 -1794.182372 5925.565208)
(0 -1555.003902 2875.174423)
(0 -755.9881808 121.5251659)
(0 -23.82343804 53.49937298)
(0 -8.911686575 31.81267179)
(0 -5.376605617 18.36134293)
(0 -3.160564383 10.27334164)
(0 -1.79659899 5.575682417)
(0 -0.9860739182 2.940275041)
(0 -0.5231493609 1.510155364)
(0 -0.2690679076 0.7573674672)
(0 -0.1346779166 0.3716176388)
(0 -0.0658501543 0.1785381641)
(0 -0.03153334402 0.08393611364)
(0 -0.01480086629 0.03854623783)
(0 -0.006802539387 0.01724930076)
(0 -0.003054300387 0.00750239396)
(0 -0.001335795334 0.00316422517)
(0 -0.0005674242185 0.001291783125)
(0 -0.0002335479712 0.0005098295074)
(0 -9.297631258e-05 0.0001943812147)
(0 -3.576144869e-05 7.157480167e-05)
(0 -1.328302951e-05 2.544948136e-05)
(0 -4.76074868e-06 8.739733007e-06)
(0 -1.646961451e-06 2.901793705e-06)
(0 -5.52312539e-07 9.307480369e-07)
(0 -1.783474928e-07 2.866735953e-07)
(0 -5.326896091e-08 8.536209813e-08)
(0 -1.74112328e-08 2.569333273e-08)
(0 -8.893845946e-09 4.376336894e-09)
(0 -1.411721579e-09 -2.44698407e-09)
(0 3.058730087e-09 -1.647008509e-09)
(0 2.823443158e-10 1.176434649e-09)
(0 -1.74112328e-09 1.882295438e-10)
(0 -2.635213614e-09 -7.529181753e-10)
(0 -1.835238052e-09 -7.623296525e-09)
(0 -9.411477192e-11 -1.10584857e-08)
(0 -5.646886315e-10 -9.08207549e-09)
(0 2.352869298e-09 -8.564444244e-09)
(0 4.18810735e-09 4.705738596e-11)
(0 3.246959631e-09 4.705738596e-09)
(0 1.317606807e-09 6.39980449e-09)
(0 -4.705738596e-11 7.388009595e-09)
(0 -1.882295438e-09 7.293894824e-09)
(0 -2.917557929e-09 3.152844859e-09)
(0 -1931.794641 15937.38495)
(0 -5188.14582 15812.36267)
(0 -6962.767869 14663.99015)
(0 -7057.791606 11955.72243)
(0 -6024.200495 8474.621791)
(0 -4905.917999 5344.223141)
(0 -4249.03614 2644.965621)
(0 -2065.68687 117.5271576)
(0 -65.88905604 55.09547475)
(0 -26.22634348 33.80081748)
(0 -16.16272453 20.12375251)
(0 -9.625096126 11.6573418)
(0 -5.536467614 6.583086543)
(0 -3.079453135 3.629192783)
(0 -1.659758213 1.954898675)
(0 -0.8694698174 1.029054525)
(0 -0.4441513865 0.5289604468)
(0 -0.2218313708 0.265076644)
(0 -0.1084585824 0.1292168754)
(0 -0.05188594654 0.06112483997)
(0 -0.02424130448 0.02799569873)
(0 -0.01103077525 0.01239201555)
(0 -0.004874815407 0.005294136197)
(0 -0.002086971492 0.002181212001)
(0 -0.0008638539863 0.000866349816)
(0 -0.0003452783932 0.0003317304776)
(0 -0.0001331701906 0.0001224866581)
(0 -4.955208622e-05 4.363353761e-05)
(0 -1.778693897e-05 1.500368282e-05)
(0 -6.162023519e-06 4.98271837e-06)
(0 -2.062760513e-06 1.598492344e-06)
(0 -6.670855033e-07 4.965495366e-07)
(0 -2.077113016e-07 1.487954544e-07)
(0 -6.362158582e-08 4.112815533e-08)
(0 -1.919941347e-08 1.077614138e-08)
(0 -4.611623824e-09 6.446861876e-09)
(0 5.646886315e-10 4.329279508e-09)
(0 1.505836351e-09 -1.552893737e-09)
(0 -1.411721579e-10 -2.070524982e-09)
(0 -5.129255069e-09 -2.964615315e-09)
(0 -8.564444244e-09 -6.258632332e-09)
(0 -1.364664193e-09 -6.63509142e-09)
(0 3.105787473e-09 -3.858705649e-09)
(0 6.87037835e-09 -2.21169714e-09)
(0 9.035018104e-09 1.835238052e-09)
(0 3.105787473e-09 2.776385772e-09)
(0 1.317606807e-09 1.552893737e-09)
(0 1.035262491e-09 2.494041456e-09)
(0 -2.399926684e-09 2.682271e-09)
(0 -7.576239139e-09 4.329279508e-09)
(0 -1672.353761 9492.915311)
(0 -4875.02767 10076.63929)
(0 -7578.934684 10554.01475)
(0 -9115.446188 10020.51373)
(0 -8846.46807 7954.938642)
(0 -7623.838542 5255.931152)
(0 -6781.699886 2698.775666)
(0 -3345.858327 125.4424475)
(0 -107.5497782 61.67070984)
(0 -43.88340881 39.5302182)
(0 -27.5200813 24.82293344)
(0 -16.70123035 15.27514819)
(0 -9.824748003 9.203824726)
(0 -5.614261787 5.419632976)
(0 -3.123287619 3.110532866)
(0 -1.695006136 1.734908368)
(0 -0.8986557975 0.9376357041)
(0 -0.4655937257 0.489760809)
(0 -0.235485148 0.2467228521)
(0 -0.116022043 0.1196823994)
(0 -0.05553536381 0.05584729889)
(0 -0.02575586287 0.02505488918)
(0 -0.01154659893 0.01080553851)
(0 -0.0049952106 0.004480743399)
(0 -0.0020830294 0.001787285541)
(0 -0.0008368395645 0.0006861919785)
(0 -0.0003238584358 0.0002537590714)
(0 -0.0001207660048 9.046453049e-05)
(0 -4.341147381e-05 3.111707292e-05)
(0 -1.505210487e-05 1.033535485e-05)
(0 -5.038528429e-06 3.315992816e-06)
(0 -1.628091439e-06 1.030556752e-06)
(0 -5.087373996e-07 3.094493701e-07)
(0 -1.55336431e-07 9.08207549e-08)
(0 -4.35751394e-08 2.654036568e-08)
(0 -7.952698227e-09 1.185846126e-08)
(0 -4.89396814e-09 6.305689718e-09)
(0 -6.117460175e-09 -7.529181753e-10)
(0 -3.152844859e-09 -4.941025526e-09)
(0 -6.823320964e-09 -4.941025526e-09)
(0 -5.458656771e-09 -2.494041456e-09)
(0 2.258754526e-09 0)
(0 3.811648263e-09 5.176312455e-10)
(0 8.093870385e-09 1.270549421e-09)
(0 9.176190262e-09 -1.882295438e-10)
(0 2.964615315e-09 3.764590877e-10)
(0 9.882051051e-10 9.411477192e-11)
(0 1.035262491e-09 -8.940903332e-10)
(0 0 0)
(0 -9.882051051e-09 -1.882295438e-10)
(0 -1348.070662 6494.598463)
(0 -4127.046381 7131.683091)
(0 -7018.893435 8022.966479)
(0 -9656.867714 8563.094032)
(0 -10788.78307 7795.865946)
(0 -10162.08098 5449.331231)
(0 -9379.524844 2862.463044)
(0 -4702.791826 143.868469)
(0 -151.8012854 76.4096275)
(0 -63.07411988 52.14710695)
(0 -40.41779453 35.09874963)
(0 -25.24420484 23.17678269)
(0 -15.39198283 14.92985235)
(0 -9.172744996 9.332417754)
(0 -5.34448282 5.635327506)
(0 -3.042366979 3.275961577)
(0 -1.689298946 1.829005979)
(0 -0.9127442229 0.9792638349)
(0 -0.478536992 0.5024048336)
(0 -0.2427614997 0.2469303128)
(0 -0.1188688147 0.1162875165)
(0 -0.05607253563 0.05249619722)
(0 -0.02544896128 0.02273242535)
(0 -0.01110522441 0.009450065848)
(0 -0.004658405312 0.003774703509)
(0 -0.00187880491 0.001450106524)
(0 -0.0007288976386 0.0005363027693)
(0 -0.0002721940376 0.0001911343492)
(0 -9.791616167e-05 6.570829854e-05)
(0 -3.396315068e-05 2.181034547e-05)
(0 -1.136760567e-05 6.995598054e-06)
(0 -3.673487777e-06 2.170521927e-06)
(0 -1.147447299e-06 6.512271643e-07)
(0 -3.465305902e-07 1.89594208e-07)
(0 -9.825582188e-08 5.642180576e-08)
(0 -2.475218501e-08 1.595245384e-08)
(0 -1.204669081e-08 3.388131789e-09)
(0 -9.740878893e-09 1.176434649e-09)
(0 -4.376336894e-09 -1.599951123e-09)
(0 -2.729328386e-09 -1.364664193e-09)
(0 -3.576361333e-09 2.352869298e-09)
(0 1.694065895e-09 3.341074403e-09)
(0 4.329279508e-09 2.588156228e-09)
(0 6.117460175e-09 1.270549421e-09)
(0 8.140927771e-09 0)
(0 3.435189175e-09 -9.411477192e-11)
(0 4.705738596e-11 -1.411721579e-10)
(0 8.940903332e-10 -8.470329473e-10)
(0 -1.647008509e-09 -1.270549421e-09)
(0 -7.388009595e-09 -2.541098842e-09)
(0 -1035.269134 5072.113378)
(0 -3346.659654 5696.369798)
(0 -6147.523742 6636.004349)
(0 -9342.54672 7494.685513)
(0 -11960.23087 7602.079821)
(0 -12557.24144 5807.246417)
(0 -12087.16265 3062.966972)
(0 -6131.911744 177.9694901)
(0 -199.2711402 106.047543)
(0 -85.19428668 78.02735282)
(0 -56.49040556 56.34846315)
(0 -36.87012763 39.57217249)
(0 -23.66911294 26.82280033)
(0 -14.90878663 17.45556411)
(0 -9.179743796 10.86995242)
(0 -5.501327664 6.465192359)
(0 -3.19535354 3.669909537)
(0 -1.792194871 1.988034955)
(0 -0.9678186701 1.028176302)
(0 -0.5021393601 0.5080389693)
(0 -0.2499694793 0.2400515199)
(0 -0.119310954 0.1085751994)
(0 -0.0545927303 0.04705907668)
(0 -0.02395293254 0.01956695575)
(0 -0.01008298882 0.007813651604)
(0 -0.004075240163 0.0029999604)
(0 -0.00158283061 0.001108614038)
(0 -0.0005913604755 0.0003947381528)
(0 -0.0002127354775 0.0001355649409)
(0 -7.376485242e-05 4.49500621e-05)
(0 -2.467835198e-05 1.440515993e-05)
(0 -7.972415272e-06 4.46480478e-06)
(0 -2.489665119e-06 1.339441434e-06)
(0 -7.502359043e-07 3.883175489e-07)
(0 -2.171227788e-07 1.104907422e-07)
(0 -6.09863722e-08 2.84697185e-08)
(0 -1.971704472e-08 7.623296525e-09)
(0 -1.10584857e-08 3.764590877e-09)
(0 -5.693943701e-09 2.352869298e-10)
(0 -2.823443158e-09 -2.823443158e-10)
(0 -7.999755613e-10 1.317606807e-09)
(0 2.494041456e-09 3.246959631e-09)
(0 1.74112328e-09 1.129377263e-09)
(0 5.505714157e-09 -1.882295438e-10)
(0 7.811526069e-09 -1.882295438e-09)
(0 2.823443158e-09 -5.646886315e-10)
(0 2.352869298e-10 -2.352869298e-10)
(0 -4.705738596e-11 -3.294017017e-10)
(0 -1.694065895e-09 -1.129377263e-09)
(0 -6.117460175e-09 0)
(0 -723.8142417 4337.884706)
(0 -2563.15541 4968.644356)
(0 -5220.57772 5947.956489)
(0 -8690.792241 6907.33111)
(0 -12476.22216 7381.543897)
(0 -14701.19382 6303.708227)
(0 -15008.80177 3350.69544)
(0 -7659.711255 242.9488754)
(0 -251.7434226 164.7487092)
(0 -112.7731997 129.9241518)
(0 -78.87297486 99.17292437)
(0 -54.76986765 72.64789439)
(0 -37.50859121 50.78909742)
(0 -25.12559291 33.78763571)
(0 -16.33485457 21.36378961)
(0 -10.24240986 12.83824604)
(0 -6.166456349 7.336660025)
(0 -3.554477458 3.990945081)
(0 -1.958532978 2.068916207)
(0 -1.030886282 1.023402099)
(0 -0.5183325846 0.4836686571)
(0 -0.2490649788 0.2186807501)
(0 -0.1144572049 0.0947085374)
(0 -0.05035064945 0.03933925958)
(0 -0.02122540066 0.01569093566)
(0 -0.00858384257 0.00601683059)
(0 -0.003334119886 0.002220626138)
(0 -0.001245243135 0.0007896724878)
(0 -0.0004477042524 0.0002708560079)
(0 -0.0001551229787 8.969904799e-05)
(0 -5.185272182e-05 2.870985235e-05)
(0 -1.673930039e-05 8.88730497e-06)
(0 -5.223887473e-06 2.66354216e-06)
(0 -1.575434225e-06 7.72023474e-07)
(0 -4.581507097e-07 2.149110817e-07)
(0 -1.276666881e-07 5.679826485e-08)
(0 -3.675181843e-08 1.30819533e-08)
(0 -1.70818311e-08 5.741001087e-09)
(0 -8.470329473e-09 3.717533491e-09)
(0 -1.599951123e-09 2.44698407e-09)
(0 -9.411477192e-11 -8.940903332e-10)
(0 1.505836351e-09 -6.117460175e-10)
(0 9.411477192e-10 -1.788180666e-09)
(0 3.011672701e-09 -2.352869298e-10)
(0 7.811526069e-09 -1.882295438e-09)
(0 5.035140298e-09 -2.352869298e-10)
(0 3.294017017e-10 9.411477192e-11)
(0 0 -4.705738596e-11)
(0 -1.364664193e-09 0)
(0 -6.211574947e-09 -7.999755613e-10)
(0 -404.5094842 3935.240528)
(0 -1736.587871 4564.274405)
(0 -4208.836988 5627.795901)
(0 -7908.959312 6746.458303)
(0 -12563.85375 7454.649691)
(0 -16588.0899 6923.423093)
(0 -18147.922 3925.190004)
(0 -9317.858475 370.8572968)
(0 -312.2958638 280.2129003)
(0 -150.7700715 232.1462951)
(0 -113.7666629 183.5144358)
(0 -85.25395458 137.6490827)
(0 -62.52937162 97.72207317)
(0 -44.33409445 65.63453934)
(0 -30.12913347 41.73370449)
(0 -19.52845724 25.15326489)
(0 -12.04265449 14.39132134)
(0 -7.059938689 7.828675998)
(0 -3.935361653 4.055464343)
(0 -2.08738691 2.003662996)
(0 -1.054690828 0.9455500745)
(0 -0.5082710737 0.4268137927)
(0 -0.2339342209 0.184535064)
(0 -0.1029705343 0.07651971922)
(0 -0.04340541781 0.0304695)
(0 -0.01754554964 0.01166475405)
(0 -0.006809988712 0.0042983621)
(0 -0.002541130605 0.00152625248)
(0 -0.0009127088703 0.0005227605947)
(0 -0.0003159109609 0.0001728907183)
(0 -0.0001054901421 5.526541756e-05)
(0 -3.401881957e-05 1.708808974e-05)
(0 -1.060494661e-05 5.117302493e-06)
(0 -3.198866983e-06 1.482778232e-06)
(0 -9.32347988e-07 4.151873163e-07)
(0 -2.628155006e-07 1.102083979e-07)
(0 -7.077430848e-08 2.710505431e-08)
(0 -2.042290551e-08 7.10566528e-09)
(0 -8.893845946e-09 6.352747104e-09)
(0 -7.482124367e-09 3.435189175e-09)
(0 -3.858705649e-09 -4.235164736e-10)
(0 1.552893737e-09 -1.882295438e-09)
(0 2.21169714e-09 -2.588156228e-09)
(0 5.317484613e-09 2.352869298e-10)
(0 7.858583455e-09 4.705738596e-10)
(0 4.846910754e-09 3.764590877e-10)
(0 4.235164736e-10 2.352869298e-10)
(0 -2.352869298e-10 1.882295438e-10)
(0 -2.399926684e-09 -4.705738596e-11)
(0 -5.317484613e-09 -8.940903332e-10)
(0 -94.78036536 3771.665125)
(0 -870.6000374 4324.249645)
(0 -3038.393822 5454.388363)
(0 -6863.938452 6812.10864)
(0 -12299.25737 7887.465553)
(0 -18230.65351 7827.150882)
(0 -21561.36757 5103.497613)
(0 -11304.68836 618.2718325)
(0 -390.4544243 502.6252125)
(0 -209.4716642 428.8291212)
(0 -173.3701873 345.3455249)
(0 -140.5622303 261.7937697)
(0 -109.5231345 186.8481229)
(0 -81.11396159 125.744833)
(0 -56.81612901 79.95008379)
(0 -37.58479301 48.1253558)
(0 -23.49104525 27.4807922)
(0 -13.89033446 14.91454769)
(0 -7.78354598 7.707055263)
(0 -4.140800551 3.798272847)
(0 -2.095181788 1.788051486)
(0 -1.010079989 0.8052070394)
(0 -0.4647512783 0.347353563)
(0 -0.2044162134 0.1437291914)
(0 -0.08608036588 0.05711789081)
(0 -0.03475498047 0.02182595267)
(0 -0.01347262146 0.008028694352)
(0 -0.00502084464 0.002846184251)
(0 -0.001801066014 0.0009733795345)
(0 -0.0006226181089 0.0003214695205)
(0 -0.0002076554445 0.0001026236414)
(0 -6.688732134e-05 3.169649052e-05)
(0 -2.082929309e-05 9.479992746e-06)
(0 -6.277596459e-06 2.746080815e-06)
(0 -1.830579371e-06 7.700941212e-07)
(0 -5.157960075e-07 2.061584079e-07)
(0 -1.398074937e-07 5.331601829e-08)
(0 -3.78811957e-08 1.124671524e-08)
(0 -1.209374819e-08 1.647008509e-09)
(0 -8.470329473e-09 5.646886315e-10)
(0 -5.364541999e-09 1.505836351e-09)
(0 -6.588034034e-10 -2.823443158e-10)
(0 3.058730087e-09 -2.870500543e-09)
(0 6.164517561e-09 0)
(0 7.905640841e-09 2.823443158e-10)
(0 4.752795982e-09 -2.21169714e-09)
(0 1.411721579e-10 -3.294017017e-10)
(0 -1.882295438e-10 3.294017017e-10)
(0 -2.494041456e-09 -1.411721579e-10)
(0 -5.317484613e-09 2.494041456e-09)
(0 148.0750367 3883.254479)
(0 -53.86463244 4234.720209)
(0 -1720.977993 5313.997922)
(0 -5475.882123 6899.61558)
(0 -11548.81151 8417.69665)
(0 -19372.05784 8939.940829)
(0 -25356.80105 6762.712615)
(0 -13918.73087 1067.65246)
(0 -501.7385751 918.6386963)
(0 -308.0497591 797.1657966)
(0 -280.8020145 647.0517735)
(0 -243.7513566 491.6241298)
(0 -198.5783082 350.5571152)
(0 -151.2321336 235.2932526)
(0 -107.7486107 149.0814942)
(0 -71.99774883 89.3968713)
(0 -45.25346261 50.85160197)
(0 -26.83367563 27.49566895)
(0 -15.0516365 14.15820055)
(0 -8.006390687 6.954613378)
(0 -4.047756635 3.263924503)
(0 -1.948968997 1.465699183)
(0 -0.8954120688 0.6306448362)
(0 -0.3932062064 0.2603308091)
(0 -0.1653086566 0.1032296555)
(0 -0.0666347461 0.03936715411)
(0 -0.02578975708 0.01445452482)
(0 -0.00959644547 0.005115435962)
(0 -0.003437423742 0.001746705275)
(0 -0.001186666807 0.000576029838)
(0 -0.000395263125 0.0001836406017)
(0 -0.0001271624682 5.66501282e-05)
(0 -3.955535632e-05 1.692244774e-05)
(0 -1.190867149e-05 4.899709141e-06)
(0 -3.47236451e-06 1.373087465e-06)
(0 -9.794994887e-07 3.718945212e-07)
(0 -2.657801159e-07 9.707938723e-08)
(0 -7.209191529e-08 2.24463731e-08)
(0 -1.966998733e-08 2.588156228e-09)
(0 -7.623296525e-09 -3.294017017e-10)
(0 -4.564566438e-09 7.999755613e-10)
(0 -2.823443158e-09 5.176312455e-10)
(0 2.399926684e-09 -1.082319877e-09)
(0 8.564444244e-09 -8.940903332e-10)
(0 5.552771543e-09 -7.529181753e-10)
(0 4.235164736e-09 -1.223492035e-09)
(0 3.058730087e-09 4.705738596e-11)
(0 -9.411477192e-11 -9.411477192e-11)
(0 -2.352869298e-10 -4.705738596e-11)
(0 -7.623296525e-09 0)
(0 256.6853652 4237.55985)
(0 560.1434058 4378.10444)
(0 -373.4984512 5199.703044)
(0 -3760.239724 6913.45866)
(0 -10258.93212 8894.738632)
(0 -19885.63755 10092.27135)
(0 -29433.65594 8603.31672)
(0 -17148.76228 1862.763484)
(0 -660.9410874 1678.949002)
(0 -481.058587 1468.780431)
(0 -478.9118541 1192.667347)
(0 -437.0568886 903.092801)
(0 -365.8540117 640.6695928)
(0 -282.5895826 427.5642825)
(0 -202.7125103 269.3537022)
(0 -135.8146852 160.6360879)
(0 -85.39224759 90.91101956)
(0 -50.58373588 48.92774328)
(0 -28.32460156 25.08794108)
(0 -15.03507659 12.27644641)
(0 -7.584095982 5.741753719)
(0 -3.643359656 2.570397348)
(0 -1.670119652 1.102863604)
(0 -0.7318313941 0.4541089441)
(0 -0.3070440209 0.1796549531)
(0 -0.1235301112 0.06836909114)
(0 -0.04772433961 0.02505538516)
(0 -0.01772866424 0.008851611942)
(0 -0.006340472091 0.003017621367)
(0 -0.002185682782 0.0009936890317)
(0 -0.0007270351543 0.0003163642176)
(0 -0.0002336055223 9.747015177e-05)
(0 -7.257966509e-05 2.908424091e-05)
(0 -2.182695673e-05 8.412025371e-06)
(0 -6.358488105e-06 2.357622094e-06)
(0 -1.791757028e-06 6.423803757e-07)
(0 -4.892556418e-07 1.676184088e-07)
(0 -1.323253693e-07 3.966937636e-08)
(0 -3.482246561e-08 8.093870385e-09)
(0 -1.035262491e-08 -1.129377263e-09)
(0 -4.517509052e-09 -1.458778965e-09)
(0 -2.494041456e-09 -9.411477192e-11)
(0 1.647008509e-09 1.176434649e-09)
(0 6.446861876e-09 -1.129377263e-09)
(0 7.623296525e-09 -1.129377263e-09)
(0 5.505714157e-09 1.035262491e-09)
(0 1.317606807e-09 1.411721579e-10)
(0 -2.352869298e-10 -2.352869298e-10)
(0 -2.399926684e-09 1.882295438e-10)
(0 -5.317484613e-09 -2.494041456e-09)
(0 288.6196264 4684.989315)
(0 908.2785616 4740.511777)
(0 814.3762272 5191.966654)
(0 -1780.846535 6865.328826)
(0 -8369.998825 9313.597771)
(0 -19663.47975 11342.65247)
(0 -33586.30891 10693.49564)
(0 -20843.09859 3270.802956)
(0 -895.7216282 3042.294456)
(0 -794.3314141 2660.351952)
(0 -846.4896445 2147.689596)
(0 -795.7491112 1613.552201)
(0 -674.1068267 1135.268752)
(0 -522.5480242 751.6390139)
(0 -374.6768054 470.0414169)
(0 -250.4404314 278.4627464)
(0 -156.9618072 156.6596967)
(0 -92.65675411 83.86857234)
(0 -51.70293337 42.80273959)
(0 -27.35257805 20.85794866)
(0 -13.7538057 9.719357299)
(0 -6.587859112 4.336738127)
(0 -3.011700473 1.855272113)
(0 -1.316414857 0.7619063891)
(0 -0.5510485096 0.3007128574)
(0 -0.2212343141 0.114194288)
(0 -0.08530723623 0.04176813893)
(0 -0.03163420922 0.01472999316)
(0 -0.01129534656 0.005013583638)
(0 -0.003887924097 0.001648530344)
(0 -0.001291482005 0.0005241406467)
(0 -0.0004144423979 0.0001612830729)
(0 -0.0001286133886 4.807020208e-05)
(0 -3.863529031e-05 1.388837572e-05)
(0 -1.124205656e-05 3.89305754e-06)
(0 -3.169503174e-06 1.058461782e-06)
(0 -8.684911153e-07 2.766033147e-07)
(0 -2.317105685e-07 6.889201304e-08)
(0 -6.042168357e-08 1.425838795e-08)
(0 -1.70818311e-08 -2.823443158e-10)
(0 -3.623418719e-09 -1.364664193e-09)
(0 -2.823443158e-10 -3.764590877e-10)
(0 1.364664193e-09 -8.470329473e-10)
(0 6.258632332e-09 -2.588156228e-09)
(0 7.764468683e-09 -7.529181753e-10)
(0 5.646886315e-09 -1.882295438e-09)
(0 1.647008509e-09 -1.411721579e-10)
(0 -4.705738596e-11 -1.882295438e-10)
(0 -2.494041456e-09 0)
(0 -5.317484613e-09 -9.411477192e-11)
(0 312.2078276 5170.475067)
(0 1067.120744 5221.801078)
(0 1751.318597 5518.553479)
(0 361.3913935 6830.196404)
(0 -5781.608483 9720.311842)
(0 -18505.73967 12832.58186)
(0 -37505.50545 13419.67935)
(0 -24799.96347 5752.107136)
(0 -1271.392091 5433.987405)
(0 -1375.663447 4710.53535)
(0 -1525.711606 3760.02675)
(0 -1449.477732 2792.569052)
(0 -1227.767198 1943.763653)
(0 -947.8169181 1274.503179)
(0 -675.8887778 790.2069803)
(0 -449.1964054 464.6270616)
(0 -279.9864217 259.6814834)
(0 -164.440693 138.226798)
(0 -91.33522523 70.19206449)
(0 -48.11845889 34.05503724)
(0 -24.10530652 15.80780668)
(0 -11.50744484 7.029413008)
(0 -5.24495139 2.998155935)
(0 -2.28639065 1.227958569)
(0 -0.9547561221 0.4834971639)
(0 -0.3824748296 0.1832117185)
(0 -0.1471886345 0.06688264958)
(0 -0.05448321948 0.02354564776)
(0 -0.01942193486 0.008001396128)
(0 -0.006675125774 0.002627151742)
(0 -0.002214282473 0.0008341824692)
(0 -0.0007096759199 0.000256371368)
(0 -0.0002199744093 7.632623299e-05)
(0 -6.600414832e-05 2.20309505e-05)
(0 -1.918835499e-05 6.172611431e-06)
(0 -5.408258311e-06 1.677925211e-06)
(0 -1.478731296e-06 4.429982314e-07)
(0 -3.945761813e-07 1.136906445e-07)
(0 -1.040909377e-07 2.494041456e-08)
(0 -2.597567705e-08 3.670476105e-09)
(0 -4.611623824e-09 1.176434649e-09)
(0 -1.929352824e-09 1.882295438e-10)
(0 -6.117460175e-10 -1.74112328e-09)
(0 6.588034034e-09 -4.65868121e-09)
(0 8.187985157e-09 -4.705738596e-11)
(0 6.117460175e-09 -1.74112328e-09)
(0 3.058730087e-09 1.411721579e-10)
(0 -1.411721579e-10 -9.411477192e-11)
(0 -2.305811912e-09 0)
(0 -5.176312455e-09 -4.705738596e-11)
(0 339.9456375 5693.667434)
(0 1256.356974 5758.005454)
(0 2422.771553 6007.455884)
(0 2420.911828 6952.850216)
(0 -2367.613366 10122.54465)
(0 -15964.11224 14651.93503)
(0 -40666.78364 17271.91466)
(0 -28828.79054 10044.99972)
(0 -1937.293415 9515.71134)
(0 -2468.292069 8114.586159)
(0 -2764.455942 6373.729661)
(0 -2612.012208 4665.17312)
(0 -2192.1727 3205.867606)
(0 -1676.104697 2078.899625)
(0 -1184.552923 1276.732147)
(0 -780.9659283 744.5890146)
(0 -483.3620708 413.244539)
(0 -282.146173 218.6432263)
(0 -155.8746942 110.4501391)
(0 -81.73683585 53.34506711)
(0 -40.77942993 24.66447345)
(0 -19.39750986 10.92998791)
(0 -8.813154911 4.647670922)
(0 -3.831073628 1.89844581)
(0 -1.59579536 0.7457132303)
(0 -0.6378488283 0.2819718642)
(0 -0.2449733069 0.1027391564)
(0 -0.09051546277 0.03610649984)
(0 -0.03221384271 0.01225077996)
(0 -0.01105513771 0.004016687975)
(0 -0.003662262285 0.001273747347)
(0 -0.001172298681 0.0003910003376)
(0 -0.0003629538061 0.0001162830829)
(0 -0.0001087888648 3.353083448e-05)
(0 -3.159503479e-05 9.382960416e-06)
(0 -8.899163431e-06 2.54923977e-06)
(0 -2.432725682e-06 6.717441846e-07)
(0 -6.498625001e-07 1.704418519e-07)
(0 -1.704418519e-07 4.070463885e-08)
(0 -4.084581101e-08 8.187985157e-09)
(0 -7.058607894e-09 1.505836351e-09)
(0 -3.058730087e-09 4.705738596e-11)
(0 -3.576361333e-09 -8.940903332e-10)
(0 7.952698227e-09 -1.647008509e-09)
(0 1.0729084e-08 4.705738596e-11)
(0 5.835115859e-09 2.352869298e-10)
(0 3.294017017e-09 1.411721579e-10)
(0 -2.352869298e-10 2.352869298e-10)
(0 -2.399926684e-09 0)
(0 -5.317484613e-09 1.411721579e-10)
(0 376.5458477 6237.67542)
(0 1380.909195 6325.613477)
(0 2946.163359 6557.022629)
(0 4476.480163 7395.163697)
(0 1917.476336 10366.43714)
(0 -11356.36967 16690.15739)
(0 -42112.44076 22509.74264)
(0 -32556.16678 17229.03404)
(0 -3201.805656 16245.43589)
(0 -4517.645126 13535.76222)
(0 -4975.124644 10419.7111)
(0 -4617.339787 7497.119549)
(0 -3814.040693 5078.191542)
(0 -2876.952377 3253.356165)
(0 -2010.199388 1977.725869)
(0 -1312.684013 1143.514812)
(0 -805.93221 630.0303842)
(0 -467.2350929 331.2762878)
(0 -256.6333844 166.4598875)
(0 -133.9041245 80.02928131)
(0 -66.52038572 36.85578841)
(0 -31.52424737 16.2763205)
(0 -14.27649349 6.900202525)
(0 -6.188348341 2.81107299)
(0 -2.571230068 1.101606208)
(0 -1.025448904 0.4156750809)
(0 -0.3930539988 0.1511730477)
(0 -0.1449715959 0.05303915348)
(0 -0.05151174668 0.01796879761)
(0 -0.01765215843 0.005883409066)
(0 -0.005839970158 0.001863385569)
(0 -0.001867140184 0.0005713544985)
(0 -0.0005774438654 0.0001697430498)
(0 -0.0001729042708 4.88989297e-05)
(0 -5.01699497e-05 1.366786481e-05)
(0 -1.41195216e-05 3.712263063e-06)
(0 -3.857529214e-06 9.788406853e-07)
(0 -1.02556867e-06 2.502511785e-07)
(0 -2.663918619e-07 6.475096308e-08)
(0 -6.517447955e-08 1.64230277e-08)
(0 -1.275255159e-08 2.776385772e-09)
(0 -4.376336894e-09 -9.411477192e-11)
(0 -2.305811912e-09 -1.882295438e-10)
(0 7.576239139e-09 1.411721579e-10)
(0 1.011733798e-08 -2.164639754e-09)
(0 6.211574947e-09 3.294017017e-10)
(0 2.964615315e-09 0)
(0 -2.352869298e-10 0)
(0 -2.399926684e-09 0)
(0 -5.317484613e-09 0)
(0 427.8836944 6806.176913)
(0 1575.704182 6921.712354)
(0 3492.321773 7266.825458)
(0 6230.326338 8066.64192)
(0 6927.380327 10577.26586)
(0 -3820.806743 18497.58132)
(0 -40127.90699 28976.133)
(0 -35093.09729 28667.72491)
(0 -5630.565232 26871.72947)
(0 -8294.016854 21754.91665)
(0 -8803.098614 16359.83108)
(0 -7953.531771 11548.88964)
(0 -6435.936083 7701.478653)
(0 -4776.570371 4870.932216)
(0 -3294.394277 2929.6837)
(0 -2128.661413 1678.965243)
(0 -1295.600595 918.1831791)
(0 -745.7166697 479.7677604)
(0 -407.1217006 239.7919199)
(0 -211.3409349 114.7611395)
(0 -104.5323907 52.64409682)
(0 -49.35309575 23.17007073)
(0 -22.27840242 9.793785505)
(0 -9.629669945 3.979584043)
(0 -3.991193269 1.555974524)
(0 -1.588281988 0.5859406132)
(0 -0.6076092344 0.2127126799)
(0 -0.223719713 0.07451038842)
(0 -0.07936958713 0.02520638944)
(0 -0.02716054965 0.008242376578)
(0 -0.008974316805 0.002607414604)
(0 -0.002865941295 0.0007986246379)
(0 -0.0008854094219 0.000237026312)
(0 -0.0002648640498 6.821899831e-05)
(0 -7.678170143e-05 1.905400615e-05)
(0 -2.15881405e-05 5.170006766e-06)
(0 -5.894690509e-06 1.365558283e-06)
(0 -1.56399928e-06 3.52600993e-07)
(0 -4.042700028e-07 9.185601739e-08)
(0 -1.027733309e-07 2.451689808e-08)
(0 -2.352869298e-08 5.646886315e-09)
(0 -6.070402789e-09 1.647008509e-09)
(0 -3.341074403e-09 0)
(0 5.929230631e-09 0)
(0 1.091731354e-08 -1.788180666e-09)
(0 7.999755613e-09 0)
(0 2.964615315e-09 0)
(0 -2.352869298e-10 0)
(0 -2.399926684e-09 0)
(0 -5.317484613e-09 0)
(0 492.0812888 7373.784805)
(0 1841.557741 7529.72323)
(0 4091.092926 8010.132342)
(0 7786.920561 9002.308036)
(0 12348.41573 11314.87764)
(0 7042.49748 19100.42127)
(0 -31942.29716 35972.81595)
(0 -34660.57032 45683.04152)
(0 -10114.61392 42767.65784)
(0 -15029.54352 33506.62916)
(0 -15181.15166 24558.98601)
(0 -13275.69221 16987.26202)
(0 -10491.99812 11144.20353)
(0 -7648.747331 6955.398795)
(0 -5202.166361 4138.23401)
(0 -3324.184534 2350.432145)
(0 -2005.129693 1275.864252)
(0 -1145.626352 662.5236822)
(0 -621.6400052 329.4002151)
(0 -321.0519476 156.9447269)
(0 -158.1114545 71.72067537)
(0 -74.37455869 31.462623)
(0 -33.46698019 13.2611452)
(0 -14.42615932 5.375128563)
(0 -5.964873498 2.097038091)
(0 -2.368710748 0.7881719825)
(0 -0.9044842237 0.2856393677)
(0 -0.3324778862 0.09990298944)
(0 -0.1177797585 0.03375027578)
(0 -0.04025113327 0.01102256289)
(0 -0.0132837221 0.003483004797)
(0 -0.004237528382 0.001065718031)
(0 -0.001307849552 0.0003160023934)
(0 -0.0003908766708 9.087190628e-05)
(0 -0.0001132188942 2.536303694e-05)
(0 -3.180792241e-05 6.87362531e-06)
(0 -8.674982044e-06 1.812179933e-06)
(0 -2.299317993e-06 4.659151784e-07)
(0 -5.94381842e-07 1.170787763e-07)
(0 -1.513836106e-07 3.011672701e-08)
(0 -3.576361333e-08 7.435066981e-09)
(0 -1.002322321e-08 9.882051051e-10)
(0 -3.858705649e-09 4.235164736e-10)
(0 5.741001087e-09 -3.764590877e-10)
(0 1.016439537e-08 -9.882051051e-10)
(0 7.999755613e-09 0)
(0 2.964615315e-09 -3.764590877e-10)
(0 -2.352869298e-10 -9.411477192e-11)
(0 -2.399926684e-09 4.705738596e-11)
(0 -5.317484613e-09 0)
(0 583.8221197 7887.370482)
(0 2212.051719 8107.666852)
(0 4964.906579 8750.133289)
(0 9535.07164 10163.73175)
(0 17025.49356 12793.79257)
(0 20837.13157 19645.69464)
(0 -13545.28675 42158.111)
(0 -28298.2554 68902.07627)
(0 -17806.97759 64993.81065)
(0 -26502.68869 49158.32894)
(0 -25322.46575 35073.12223)
(0 -21368.31425 23754.70663)
(0 -16467.79931 15326.23927)
(0 -11782.53989 9438.546197)
(0 -7899.360926 5555.183664)
(0 -4991.031171 3127.445784)
(0 -2983.509058 1685.308017)
(0 -1692.180706 869.8468626)
(0 -912.7006559 430.2867351)
(0 -469.0204746 204.1343788)
(0 -230.0144946 92.94513566)
(0 -107.8126259 40.64587131)
(0 -48.36589686 17.08549665)
(0 -20.79377705 6.908982716)
(0 -8.57814985 2.689911631)
(0 -3.399680712 1.009174042)
(0 -1.295878227 0.3651460201)
(0 -0.4756088049 0.127528326)
(0 -0.1682500137 0.0430278979)
(0 -0.05742782068 0.01403639482)
(0 -0.01893116167 0.004430728362)
(0 -0.006032943651 0.001354417259)
(0 -0.0018602555 0.0004012588006)
(0 -0.0005555034062 0.0001152990189)
(0 -0.0001607800295 3.215708821e-05)
(0 -4.513895045e-05 8.711169174e-06)
(0 -1.230249476e-05 2.292588787e-06)
(0 -3.259053379e-06 5.857703404e-07)
(0 -8.400684541e-07 1.456896669e-07)
(0 -2.123699828e-07 3.614007242e-08)
(0 -5.270427227e-08 7.623296525e-09)
(0 -1.312901068e-08 -1.599951123e-09)
(0 -4.611623824e-09 1.411721579e-10)
(0 4.470451666e-09 -3.294017017e-10)
(0 1.13878874e-08 -2.729328386e-09)
(0 8.61150163e-09 -4.705738596e-11)
(0 2.870500543e-09 4.705738596e-11)
(0 9.411477192e-11 8.470329473e-10)
(0 -2.305811912e-09 -2.823443158e-10)
(0 -5.317484613e-09 -1.882295438e-10)
(0 712.3776581 8273.688155)
(0 2704.320547 8572.751649)
(0 6147.157829 9413.732484)
(0 11830.57984 11309.49386)
(0 21830.37861 14960.12855)
(0 36406.81592 22194.89654)
(0 17314.08447 45702.91408)
(0 -11824.87067 97443.6574)
(0 -29858.36125 93528.36762)
(0 -44950.23194 68237.86975)
(0 -40584.77396 47377.24757)
(0 -33022.57518 31419.8704)
(0 -24808.15855 19939.71351)
(0 -17419.80293 12119.6707)
(0 -11513.26677 7058.421529)
(0 -7194.060181 3939.906039)
(0 -4262.728614 2108.309007)
(0 -2400.647634 1081.893513)
(0 -1287.352489 532.6041675)
(0 -658.3935471 251.6526956)
(0 -321.599962 114.1878017)
(0 -150.2341977 49.78918948)
(0 -67.20386878 20.87612274)
(0 -28.82174434 8.423380542)
(0 -11.86468217 3.27326918)
(0 -4.693476359 1.225976982)
(0 -1.78612994 0.4429352196)
(0 -0.6545960085 0.1544931878)
(0 -0.2312716896 0.052064616)
(0 -0.07884830281 0.01696640705)
(0 -0.02596569966 0.005350517157)
(0 -0.008266998037 0.001634173654)
(0 -0.002546967792 0.0004837566098)
(0 -0.0007599782891 0.0001389047448)
(0 -0.0002198067439 3.871524081e-05)
(0 -6.167246889e-05 1.048222095e-05)
(0 -1.680038088e-05 2.757751047e-06)
(0 -4.446217112e-06 7.057196172e-07)
(0 -1.14401211e-06 1.767475417e-07)
(0 -2.894970384e-07 4.211636043e-08)
(0 -7.336246471e-08 1.119965786e-08)
(0 -1.74112328e-08 1.035262491e-09)
(0 -2.682271e-09 -9.411477192e-11)
(0 2.823443158e-09 7.999755613e-10)
(0 1.03996823e-08 -2.164639754e-09)
(0 1.0729084e-08 -4.705738596e-11)
(0 3.858705649e-09 0)
(0 -4.705738596e-10 -2.352869298e-10)
(0 -3.388131789e-09 -2.823443158e-10)
(0 -4.89396814e-09 -2.352869298e-10)
(0 882.8856136 8446.149199)
(0 3352.096048 8824.320494)
(0 7701.648787 9890.096843)
(0 15081.4677 12283.55034)
(0 27910.89625 17276.89304)
(0 51579.9171 26513.30437)
(0 61703.47411 49068.60935)
(0 19527.19814 128270.7148)
(0 -47012.76524 126249.2429)