/*--------------------------------*- C++ -*----------------------------------*\
  =========                 |
  \\      /  F ield         | OpenFOAM: The Open Source CFD Toolbox
   \\    /   O peration     | Website:  https://openfoam.org
    \\  /    A nd           | Version:  6
     \\/     M anipulation  |
\*---------------------------------------------------------------------------*/
FoamFile
{
    version     2.0;
    format      ascii;
    class       volVectorField;
    location    "0.12";
    object      Marangoni;
}
// * * * * * * * * * * * * * * * * * * * * * * * * * * * * * * * * * * * * * //

dimensions      [1 -2 -2 0 0 0 0];

internalField   nonuniform List<vector> 
2500
(
(-0 1.596637353e-12 -2.924913427e-11)
(-0 3.69012021e-12 -2.548034867e-11)
(-0 1.772642519e-11 -9.315147593e-11)
(-0 2.116880754e-11 -1.026259394e-10)
(-0 1.475863766e-11 -6.323122389e-11)
(-0 1.771965427e-11 -5.85240677e-11)
(-0 3.380190946e-07 -6.268504871e-07)
(-0 5.753226752e-06 -10.1228951)
(-0 1.903273481e-07 -4.455933181)
(-0 2.144228527e-09 -7.679900356e-09)
(-0 1.15622353e-14 -3.947493842e-14)
(-0 6.537977269e-15 -2.124529037e-14)
(-0 6.495107327e-15 -2.015096709e-14)
(-0 3.66784218e-15 -1.093314291e-14)
(-0 2.463313565e-15 -7.108360377e-15)
(-0 3.015855863e-16 -8.486186999e-16)
(-0 8.605012113e-16 -2.373652457e-15)
(-0 1.102158906e-16 -2.987417242e-16)
(-0 8.089965445e-17 -2.152858787e-16)
(-0 2.147962434e-17 -5.59272107e-17)
(-0 1.972960905e-17 -5.001839647e-17)
(-0 8.005074043e-18 -1.965942851e-17)
(-0 4.363389479e-18 -1.033410797e-17)
(-0 4.132366597e-18 -9.405987343e-18)
(-0 1.219567666e-18 -2.661826591e-18)
(-0 3.43178019e-19 -7.173425271e-19)
(-0 9.041384254e-20 -1.809271202e-19)
(-0 4.380668326e-20 -8.391676298e-20)
(-0 5.383189696e-21 -9.880690156e-21)
(-0 8.19414031e-21 -1.443493332e-20)
(-0 1.132706513e-21 -1.908450597e-21)
(-0 7.698801317e-22 -1.236906755e-21)
(-0 1.192251573e-22 -1.912261405e-22)
(-0 1.003946089e-22 -1.477351561e-22)
(-0 1.01868047e-23 -4.930846957e-24)
(-0 2.738920847e-24 4.838760164e-24)
(-0 -8.860022769e-24 4.907089534e-24)
(-0 -9.305797937e-25 -3.456439234e-24)
(-0 3.586894814e-24 -4.719598439e-25)
(-0 1.065678832e-24 3.235096455e-25)
(-0 0 0)
(-0 0 0)
(-0 0 0)
(-0 -0 0)
(-0 -0 -0)
(-0 -0 -0)
(-0 -0 -0)
(-0 0 -0)
(-0 0 -0)
(-0 0 -0)
(-0 7.167084766e-12 -5.912690053e-11)
(-0 3.706020818e-11 -1.12958082e-10)
(-0 1.993458005e-11 -4.198892529e-11)
(-0 4.853045171e-11 -8.22183298e-11)
(-0 5.474183854e-11 -7.701601293e-11)
(-0 3.083826298e-11 -3.359738084e-11)
(-0 4.390136223e-07 -2.734973178e-07)
(-0 1.573946988e-05 -9.790275338)
(-0 5.132822149e-07 -4.588787326)
(-0 2.121357843e-09 -2.734508016e-09)
(-0 6.874164667e-14 -8.556283205e-14)
(-0 4.491266404e-14 -5.437794069e-14)
(-0 3.132692459e-14 -3.723630101e-14)
(-0 8.590767636e-15 -1.012087881e-14)
(-0 6.367995501e-15 -7.497849647e-15)
(-0 3.061372874e-15 -3.622146876e-15)
(-0 1.268112414e-15 -1.509843519e-15)
(-0 8.93781542e-16 -1.067774801e-15)
(-0 6.292313429e-17 -7.495180916e-17)
(-0 4.981862851e-17 -5.867997327e-17)
(-0 3.187344312e-17 -3.680479952e-17)
(-0 2.035977447e-17 -2.286944225e-17)
(-0 2.432330117e-17 -2.641252709e-17)
(-0 1.16458182e-17 -1.217037001e-17)
(-0 6.923056221e-18 -6.942308868e-18)
(-0 1.464674283e-18 -1.407051809e-18)
(-0 2.727892355e-19 -2.508775917e-19)
(-0 2.262978985e-19 -1.992467222e-19)
(-0 9.060272264e-20 -7.641683309e-20)
(-0 3.84080545e-20 -3.105390325e-20)
(-0 1.145172754e-20 -8.872918418e-21)
(-0 4.524416211e-21 -3.367991325e-21)
(-0 9.35300147e-22 -6.697736266e-22)
(-0 6.079772576e-22 -3.934236191e-22)
(-0 1.648232327e-22 -9.273837907e-23)
(-0 1.922429722e-23 -2.715184246e-23)
(-0 -2.222966111e-24 -1.685749301e-23)
(-0 -6.825647394e-24 6.825647394e-24)
(-0 7.104228315e-25 1.018272725e-23)
(-0 1.021255847e-23 5.663327882e-24)
(-0 0 0)
(-0 0 0)
(-0 -0 0)
(-0 -0 0)
(-0 -0 -0)
(-0 -0 -0)
(-0 -0 -0)
(-0 -0 -0)
(-0 0 -0)
(-0 0 -0)
(-0 3.10783474e-12 -1.764471804e-11)
(-0 3.9005875e-11 -8.064363904e-11)
(-0 1.028525192e-10 -1.43259821e-10)
(-0 4.337733621e-11 -4.76932555e-11)
(-0 2.008347836e-11 -1.806254673e-11)
(-0 1.399381507e-11 -9.648721162e-12)
(-0 3.385219456e-07 -1.347519672e-07)
(-0 2.551957696e-05 -10.44980438)
(-0 8.228689512e-07 -5.136229847)
(-0 2.136752911e-09 -1.924499292e-09)
(-0 1.616000052e-13 -1.457120123e-13)
(-0 4.296998674e-14 -3.928665064e-14)
(-0 1.421813162e-14 -1.331472099e-14)
(-0 3.115361789e-14 -3.006326511e-14)
(-0 1.823744266e-14 -1.815734358e-14)
(-0 1.487416914e-14 -1.522030856e-14)
(-0 4.652146773e-15 -4.852895486e-15)
(-0 1.858856168e-15 -1.95501026e-15)
(-0 1.036513502e-15 -1.085832982e-15)
(-0 7.054807203e-16 -7.276602537e-16)
(-0 3.169060159e-16 -3.186575971e-16)
(-0 1.297170799e-16 -1.261766981e-16)
(-0 6.349880782e-17 -5.941904849e-17)
(-0 3.478557934e-17 -3.120068069e-17)
(-0 9.190377671e-18 -7.884977064e-18)
(-0 3.907350584e-18 -3.20371543e-18)
(-0 7.324801623e-19 -5.738913289e-19)
(-0 3.56666255e-19 -2.671546004e-19)
(-0 1.351789465e-19 -9.688790372e-20)
(-0 2.514418447e-20 -1.726356829e-20)
(-0 1.980849071e-20 -1.303553805e-20)
(-0 7.084426749e-21 -4.48410329e-21)
(-0 2.881821533e-21 -1.752918476e-21)
(-0 7.906694463e-22 -4.6184525e-22)
(-0 3.830598064e-22 -2.334919861e-22)
(-0 5.118473821e-23 -7.601993663e-23)
(-0 1.411191256e-23 -1.835918721e-23)
(-0 2.469425642e-23 3.086782053e-24)
(-0 1.495417056e-23 2.388203358e-23)
(-0 3.518844399e-23 2.55477744e-23)
(-0 5.250963761e-24 2.378641704e-24)
(-0 -0 0)
(-0 -0 -0)
(-0 -0 -0)
(-0 -0 0)
(-0 -0 -0)
(-0 -0 -0)
(-0 -0 0)
(-0 -0 -0)
(-0 0 0)
(-0 9.066420238e-12 -4.369609583e-11)
(-0 1.922356406e-11 -3.323063379e-11)
(-0 7.056284572e-11 -8.067902454e-11)
(-0 1.409845253e-10 -1.250391496e-10)
(-0 3.752373527e-11 -2.711738695e-11)
(-0 2.388188911e-12 -1.280760769e-12)
(-0 3.978903609e-07 -1.214524068e-07)
(-0 3.588457114e-05 -11.98427435)
(-0 1.156843732e-06 -6.363412552)
(-0 2.707351328e-09 -2.237780977e-09)
(-0 1.669966441e-13 -1.449640562e-13)
(-0 6.840611934e-14 -6.278016028e-14)
(-0 8.851095473e-14 -8.582338573e-14)
(-0 6.422742217e-14 -6.53253173e-14)
(-0 3.187447658e-14 -3.360043817e-14)
(-0 2.440526405e-14 -2.627372334e-14)
(-0 8.789229078e-15 -9.514594601e-15)
(-0 4.721573959e-15 -5.065054948e-15)
(-0 1.179703372e-15 -1.238423598e-15)
(-0 3.532662357e-16 -3.593041341e-16)
(-0 5.995185411e-16 -5.864588913e-16)
(-0 1.815171601e-16 -1.699289166e-16)
(-0 1.332425752e-16 -1.190121981e-16)
(-0 6.793597891e-17 -5.780695424e-17)
(-0 3.404879259e-17 -2.758796316e-17)
(-0 7.971158338e-18 -6.151930286e-18)
(-0 3.838707499e-18 -2.824227097e-18)
(-0 1.488816768e-18 -1.045374849e-18)
(-0 3.23625124e-19 -2.171592421e-19)
(-0 1.146812679e-19 -7.364044041e-20)
(-0 1.549406606e-20 -9.534463204e-21)
(-0 2.292343714e-20 -1.354297385e-20)
(-0 5.186435075e-21 -2.942746056e-21)
(-0 8.126895291e-22 -4.445850656e-22)
(-0 4.502991157e-22 -2.588623708e-22)
(-0 1.535018032e-22 -9.930746428e-23)
(-0 6.376556465e-23 -1.825445576e-23)
(-0 3.266462192e-23 -3.787202542e-24)
(-0 1.749202786e-23 6.326903692e-24)
(-0 1.381418652e-23 7.270624484e-24)
(-0 1.373289581e-23 -8.739115518e-24)
(-0 -6.850792492e-25 -1.351128519e-24)
(-0 -0 -0)
(-0 -0 -0)
(-0 -0 -0)
(-0 -0 0)
(-0 -0 0)
(-0 -0 0)
(-0 0 0)
(-0 0 0)
(-0 8.516987602e-12 -4.174668635e-11)
(-0 3.757684813e-11 -6.398159782e-11)
(-0 1.449728512e-11 -1.565227167e-11)
(-0 1.146791255e-10 -9.200356683e-11)
(-0 1.723289438e-10 -1.095341141e-10)
(-0 1.863720174e-11 -8.618458917e-12)
(-0 8.687689897e-07 -2.20227141e-07)
(-0 4.679680277e-05 -14.82359309)
(-0 1.515092039e-06 -8.831165942)
(-0 5.624982877e-09 -5.151178134e-09)
(-0 9.965418156e-14 -9.936523121e-14)
(-0 2.531254927e-13 -2.715803468e-13)
(-0 1.297330369e-13 -1.469743694e-13)
(-0 6.409003099e-15 -7.50195916e-15)
(-0 1.430162591e-14 -1.693158428e-14)
(-0 5.313387299e-15 -6.243377155e-15)
(-0 1.516960884e-14 -1.742046268e-14)
(-0 2.382724833e-15 -2.642846455e-15)
(-0 1.588430498e-15 -1.687360234e-15)
(-0 1.161396399e-15 -1.174960346e-15)
(-0 7.923844512e-16 -7.608962524e-16)
(-0 2.609209952e-16 -2.374281395e-16)
(-0 1.093068333e-16 -9.421690564e-17)
(-0 2.951498838e-17 -2.4109035e-17)
(-0 4.038101113e-17 -3.129061615e-17)
(-0 1.168951398e-17 -8.604594471e-18)
(-0 7.163443383e-18 -5.016939973e-18)
(-0 4.090982298e-18 -2.730581103e-18)
(-0 1.430961212e-18 -9.11812875e-19)
(-0 2.752968765e-19 -1.677460365e-19)
(-0 1.692835203e-19 -9.880657863e-20)
(-0 3.462585073e-20 -1.939027945e-20)
(-0 7.657193049e-21 -4.119236206e-21)
(-0 1.120163209e-21 -5.799471587e-22)
(-0 3.540926186e-22 -1.80129397e-22)
(-0 3.975429538e-22 -1.852118723e-22)
(-0 8.144578982e-23 -3.183612408e-23)
(-0 6.545447827e-23 -2.228237558e-23)
(-0 1.967699844e-23 -6.504792871e-25)
(-0 1.081313861e-23 1.081313861e-24)
(-0 3.094621847e-24 -5.097024218e-24)
(-0 -3.025766684e-24 -3.939205683e-24)
(-0 -0 -0)
(-0 -0 0)
(-0 -0 0)
(-0 -0 0)
(-0 -0 0)
(-0 0 0)
(-0 0 0)
(-0 0 0)
(-0 2.531554543e-12 -1.517914932e-11)
(-0 3.067931917e-11 -5.948714451e-11)
(-0 6.225098056e-11 -7.092821058e-11)
(-0 2.108064706e-11 -1.675327632e-11)
(-0 1.842914894e-10 -1.090181939e-10)
(-0 1.905779754e-10 -8.170364887e-11)
(-0 1.529437454e-06 -3.41620067e-07)
(-0 5.845647344e-05 -20.23326307)
(-0 1.913665024e-06 -13.71898924)
(-0 1.044086604e-08 -1.203063459e-08)
(-0 5.199140158e-13 -6.534978415e-13)
(-0 4.69241582e-13 -6.222295777e-13)
(-0 8.083300271e-14 -1.09427453e-13)
(-0 6.1937575e-14 -8.327517938e-14)
(-0 2.400913848e-14 -3.139620513e-14)
(-0 1.255208549e-14 -1.573149903e-14)
(-0 2.706894149e-14 -3.220281042e-14)
(-0 8.750659509e-15 -9.824408807e-15)
(-0 1.890953097e-15 -1.997385709e-15)
(-0 2.679599783e-15 -2.6599687e-15)
(-0 1.203609336e-15 -1.12304421e-15)
(-0 5.274456148e-16 -4.630710464e-16)
(-0 7.247671744e-17 -5.996756065e-17)
(-0 5.616372046e-17 -4.387816885e-17)
(-0 4.624383676e-17 -3.41836085e-17)
(-0 3.567571608e-17 -2.500514748e-17)
(-0 5.99383986e-18 -3.991808255e-18)
(-0 1.747482446e-18 -1.108091532e-18)
(-0 2.431765553e-18 -1.471088134e-18)
(-0 7.557100216e-19 -4.369543984e-19)
(-0 2.515978087e-19 -1.392951135e-19)
(-0 7.315955432e-20 -3.883940141e-20)
(-0 1.825385579e-20 -9.306706222e-21)
(-0 4.614389343e-22 -2.260899922e-22)
(-0 1.10635139e-21 -5.188233361e-22)
(-0 3.696099951e-22 -1.643319726e-22)
(-0 2.695239796e-22 -9.4922327e-23)
(-0 7.705610546e-23 -2.589764426e-23)
(-0 3.51294264e-23 -1.57003023e-23)
(-0 6.177026488e-24 -9.093955663e-24)
(-0 5.001625222e-37 3.453849688e-24)
(-0 -1.495743195e-24 5.60903698e-25)
(-0 -0 0)
(-0 -0 0)
(-0 -0 0)
(-0 -0 0)
(-0 -0 -0)
(-0 -0 0)
(-0 0 -0)
(-0 0 0)
(-0 1.218735499e-13 -1.186302039e-12)
(-0 5.735929366e-12 -1.507882463e-11)
(-0 4.976488541e-11 -6.653932937e-11)
(-0 1.018908634e-10 -8.689955891e-11)
(-0 1.370823845e-11 -8.1319072e-12)
(-0 2.812935357e-10 -1.173803186e-10)
(-0 2.303999261e-06 -4.987019848e-07)
(-0 7.111689325e-05 -30.88368298)
(-0 2.36887848e-06 -23.33392263)
(-0 1.638196824e-08 -2.523427159e-08)
(-0 1.206079717e-12 -1.944943779e-12)
(-0 2.774632831e-13 -4.478857341e-13)
(-0 1.463175091e-13 -2.286281274e-13)
(-0 3.684475552e-14 -5.453952724e-14)
(-0 8.104423294e-14 -1.12247075e-13)
(-0 8.400837544e-14 -1.08195549e-13)
(-0 4.175199054e-14 -4.989085876e-14)
(-0 2.93279687e-14 -3.251904037e-14)
(-0 8.50789052e-15 -8.766935912e-15)
(-0 4.174311447e-15 -4.006612578e-15)
(-0 5.376752599e-16 -4.820037667e-16)
(-0 2.762276019e-15 -2.319428865e-15)
(-0 4.342121615e-16 -3.424978205e-16)
(-0 5.665329449e-17 -4.209746429e-17)
(-0 1.137348082e-16 -7.983343456e-17)
(-0 3.723101232e-17 -2.475045323e-17)
(-0 2.797670362e-17 -1.765722975e-17)
(-0 2.006404202e-18 -1.20499981e-18)
(-0 2.120281002e-18 -1.214319129e-18)
(-0 2.224441104e-18 -1.217298007e-18)
(-0 7.238481623e-19 -3.791903622e-19)
(-0 3.077538249e-20 -1.545772211e-20)
(-0 1.398134644e-20 -6.746162207e-21)
(-0 1.160494098e-20 -5.378488958e-21)
(-0 3.933729117e-21 -1.751536254e-21)
(-0 1.035260617e-21 -4.343998238e-22)
(-0 3.260977226e-22 -1.246844234e-22)
(-0 7.323357322e-23 -2.542832404e-23)
(-0 5.176560401e-23 -3.670153935e-23)
(-0 4.126045478e-23 -1.894347924e-23)
(-0 1.392829628e-23 1.528715446e-24)
(-0 -2.804298645e-24 3.381654248e-24)
(-0 -8.130991089e-26 9.687989383e-26)
(-0 -0 -0)
(-0 -0 -0)
(-0 -0 -0)
(-0 -0 -0)
(-0 0 -0)
(-0 0 0)
(-0 0 0)
(-0 2.114957088e-14 -8.426621835e-13)
(-0 1.08622414e-13 -5.396319233e-13)
(-0 8.691378479e-12 -1.560088414e-11)
(-0 8.41818237e-11 -8.353076623e-11)
(-0 1.907312359e-10 -1.222926446e-10)
(-0 5.926953452e-11 -2.544290437e-11)
(-0 3.718112366e-06 -8.815624154e-07)
(-0 8.627909241e-05 -51.48889535)
(-0 2.940038313e-06 -41.85620751)
(-0 2.960907214e-08 -6.067578494e-08)
(-0 6.500228616e-13 -1.294536207e-12)
(-0 5.114432952e-13 -9.52394805e-13)
(-0 6.28449613e-14 -1.072007171e-13)
(-0 9.831809482e-14 -1.523991568e-13)
(-0 1.677904e-13 -2.36088886e-13)
(-0 9.937439272e-14 -1.272335225e-13)
(-0 1.440451832e-13 -1.684974763e-13)
(-0 4.32959903e-14 -4.648514728e-14)
(-0 2.931863232e-14 -2.902849533e-14)
(-0 1.79657033e-14 -1.64784423e-14)
(-0 1.079219404e-14 -9.209543832e-15)
(-0 3.339020204e-15 -2.661587424e-15)
(-0 2.39321064e-15 -1.78855269e-15)
(-0 7.279741448e-16 -5.118173175e-16)
(-0 1.427714336e-16 -9.472802613e-17)
(-0 6.892856235e-17 -4.328368629e-17)
(-0 2.068184025e-17 -1.232396994e-17)
(-0 1.185407001e-17 -6.719270839e-18)
(-0 7.396320374e-18 -3.997021763e-18)
(-0 3.912789951e-18 -2.020098967e-18)
(-0 1.105939436e-18 -5.465162323e-19)
(-0 2.47991381e-19 -1.175092842e-19)
(-0 7.521530205e-20 -3.422986538e-20)
(-0 2.556664579e-20 -1.118332708e-20)
(-0 2.294399553e-21 -9.650810717e-22)
(-0 3.161395182e-21 -1.263341371e-21)
(-0 5.911573395e-22 -2.256310467e-22)
(-0 9.955087298e-23 -2.945512721e-23)
(-0 6.498147133e-23 -8.596770526e-24)
(-0 5.109643239e-23 -3.140004225e-24)
(-0 1.893309925e-23 -5.314554176e-24)
(-0 7.765514236e-25 2.773397941e-25)
(-0 -1.012048891e-24 9.497689592e-25)
(-0 -0 -0)
(-0 -0 -0)
(-0 -0 0)
(-0 -0 0)
(-0 0 -0)
(-0 0 0)
(-0 0 -0)
(-0 -4.091261085e-14 -1.072500626e-12)
(-0 5.046485884e-15 -3.973634286e-13)
(-0 1.260099116e-13 -3.89038738e-13)
(-0 1.385049997e-11 -1.744886463e-11)
(-0 1.308117269e-10 -9.533501889e-11)
(-0 3.381716417e-10 -1.560542044e-10)
(-0 4.618555847e-06 -1.234295906e-06)
(-0 0.0001060409515 -88.91905635)
(-0 3.744094074e-06 -76.50420938)
(-0 5.709416181e-08 -1.480345989e-07)
(-0 2.181475792e-12 -5.025974933e-12)
(-0 9.308726701e-13 -1.877254981e-12)
(-0 9.415303823e-13 -1.661948632e-12)
(-0 5.995944278e-13 -9.327922726e-13)
(-0 4.545429427e-13 -6.288576535e-13)
(-0 1.608574071e-13 -1.997155406e-13)
(-0 1.457518308e-13 -1.637703872e-13)
(-0 7.250743485e-14 -7.429092671e-14)
(-0 4.289147849e-14 -4.03426745e-14)
(-0 3.48544511e-14 -3.027358084e-14)
(-0 2.131895322e-14 -1.718940302e-14)
(-0 9.950687703e-15 -7.482763579e-15)
(-0 2.859989308e-15 -2.014165252e-15)
(-0 6.284422602e-16 -4.160438894e-16)
(-0 5.450405647e-16 -3.40334559e-16)
(-0 1.13206623e-16 -6.687645626e-17)
(-0 8.131489036e-17 -4.557163511e-17)
(-0 2.947307167e-17 -1.57096118e-17)
(-0 2.472460009e-17 -1.25627148e-17)
(-0 3.604373973e-18 -1.749498532e-18)
(-0 7.681506121e-19 -3.568586613e-19)
(-0 7.576467372e-19 -3.375015209e-19)
(-0 1.56044343e-19 -6.675314489e-20)
(-0 2.78905919e-20 -1.147445595e-20)
(-0 1.572861715e-20 -6.218892756e-21)
(-0 5.079653876e-21 -1.927999085e-21)
(-0 1.147591395e-21 -4.190688606e-22)
(-0 3.687283536e-22 -1.150161837e-22)
(-0 8.65113086e-23 -1.164575308e-23)
(-0 2.634836524e-23 1.152740979e-24)
(-0 1.597369643e-23 -2.799513807e-24)
(-0 4.967233991e-24 -9.10659565e-25)
(-0 -2.594997156e-25 1.193698692e-25)
(-0 -0 0)
(-0 -0 0)
(-0 -0 0)
(-0 -0 -0)
(-0 0 0)
(-0 0 -0)
(-0 0 -0)
(-0 -5.335240593e-14 -8.803767538e-13)
(-0 -1.081055219e-13 -8.44666534e-13)
(-0 2.755624681e-14 -3.834689082e-13)
(-0 6.868473451e-13 -1.262610991e-12)
(-0 1.711927721e-11 -1.484185969e-11)
(-0 2.479519373e-09 -1.258398855e-09)
(-0 1.059508304e-06 -3.097225063e-07)
(-0 0.0001427494022 -155.1475393)
(-0 5.040356046e-06 -139.831951)
(-0 1.114688965e-07 -3.414119522e-07)
(-0 7.285304173e-13 -1.814092162e-12)
(-0 1.061891148e-12 -2.193975862e-12)
(-0 2.048829018e-12 -3.587522528e-12)
(-0 4.879032701e-13 -7.381498714e-13)
(-0 3.201755136e-13 -4.254002268e-13)
(-0 2.544459217e-13 -3.009261995e-13)
(-0 1.50524574e-13 -1.602411552e-13)
(-0 1.205171798e-13 -1.165633431e-13)
(-0 4.788228323e-14 -4.240770897e-14)
(-0 8.947557849e-14 -7.30533577e-14)
(-0 3.1011026e-14 -2.347606738e-14)
(-0 2.078717072e-14 -1.466431836e-14)
(-0 1.619102678e-15 -1.069095952e-15)
(-0 7.730724427e-16 -4.796639635e-16)
(-0 1.284206559e-16 -7.5134799e-17)
(-0 3.493333373e-16 -1.933279002e-16)
(-0 1.957119352e-16 -1.027414851e-16)
(-0 1.029069269e-16 -5.137575262e-17)
(-0 1.972765852e-17 -9.388275399e-18)
(-0 4.533015257e-18 -2.060713291e-18)
(-0 1.677595992e-18 -7.299385417e-19)
(-0 3.800727336e-19 -1.58570367e-19)
(-0 4.880665678e-19 -1.955640299e-19)
(-0 7.965477122e-20 -3.069634748e-20)
(-0 3.021121476e-20 -1.120133602e-20)
(-0 1.296935355e-20 -4.649649037e-21)
(-0 2.807223018e-21 -9.617790166e-22)
(-0 5.696611086e-22 -1.707558664e-22)
(-0 4.993990414e-23 -1.150377196e-23)
(-0 3.248877501e-23 3.576745873e-24)
(-0 1.661130306e-23 5.191032207e-24)
(-0 2.48240984e-24 9.367584303e-26)
(-0 -0 -0)
(-0 -0 0)
(-0 -0 0)
(-0 -0 -0)
(-0 -0 -0)
(-0 0 0)
(-0 0 -0)
(-0 0 0)
(-0 -1.706313332e-14 -2.768197439e-13)
(-0 -2.211002171e-13 -1.153353887e-12)
(-0 -5.739695166e-14 -3.658652436e-13)
(-0 5.258128058e-13 -2.026437559e-12)
(-0 3.381051588e-12 -3.761982463e-12)
(-0 9.092286427e-11 -5.244835064e-11)
(-0 0.0001324710033 -7.039193383e-05)
(-0 0.0002140631979 -272.4349247)
(-0 7.106632928e-06 -253.3958813)
(-0 1.481387101e-07 -4.971662843e-07)
(-0 2.476311268e-12 -6.282216465e-12)
(-0 3.304069382e-12 -6.699139674e-12)
(-0 1.367803662e-12 -2.303347231e-12)
(-0 1.190219769e-12 -1.711895989e-12)
(-0 5.910265157e-13 -7.414026578e-13)
(-0 3.908134165e-13 -4.345105574e-13)
(-0 1.890948256e-13 -1.887171048e-13)
(-0 3.436589123e-13 -3.110413183e-13)
(-0 2.463332561e-13 -2.039142727e-13)
(-0 1.297897146e-13 -9.896500245e-14)
(-0 2.921726789e-14 -2.064534365e-14)
(-0 2.640403625e-14 -1.738028428e-14)
(-0 8.460432956e-15 -5.211417902e-15)
(-0 2.996230184e-15 -1.734008854e-15)
(-0 2.933205035e-15 -1.600559114e-15)
(-0 1.336600853e-15 -6.898594372e-16)
(-0 4.324588362e-16 -2.117243836e-16)
(-0 9.831430117e-17 -4.57750675e-17)
(-0 2.836776475e-17 -1.259042679e-17)
(-0 7.399464702e-18 -3.137227601e-18)
(-0 3.337653146e-18 -1.354463014e-18)
(-0 2.53833314e-18 -9.877330387e-19)
(-0 4.762442664e-19 -1.779862329e-19)
(-0 2.077921404e-19 -7.468976842e-20)
(-0 6.892823394e-20 -2.38672486e-20)
(-0 2.052550315e-20 -6.853666174e-21)
(-0 4.165413522e-21 -1.32658503e-21)
(-0 5.183523642e-22 -1.540047705e-22)
(-0 1.854682064e-22 -4.386170583e-23)
(-0 6.840288506e-23 1.133749476e-24)
(-0 1.412720308e-23 5.390643279e-24)
(-0 2.802596929e-25 3.736795905e-25)
(-0 -0 0)
(-0 -0 0)
(-0 -0 0)
(-0 -0 0)
(-0 -0 0)
(-0 0 0)
(-0 0 0)
(-0 0 0)
(-0 -7.802196227e-17 -1.291614222e-15)
(-0 -1.413729325e-13 -6.913980348e-13)
(-0 -1.836507705e-13 -5.784640541e-13)
(-0 -4.290164909e-14 -8.114073801e-13)
(-0 2.661225158e-12 -4.473632357e-12)
(-0 7.6612712e-10 -5.312546006e-10)
(-0 0.0002118610455 -0.000226375932)
(-0 0.0001532990267 -479.1368148)
(-0 1.027141135e-05 -452.6330076)
(-0 1.960611925e-07 -6.721588112e-07)
(-0 2.358130748e-12 -5.810979454e-12)
(-0 5.860004459e-12 -1.128901425e-11)
(-0 4.321782967e-12 -6.841595968e-12)
(-0 2.367942952e-12 -3.183870496e-12)
(-0 1.771466713e-12 -2.070935623e-12)
(-0 1.045266079e-12 -1.081093196e-12)
(-0 1.177374466e-12 -1.09190944e-12)
(-0 2.379876072e-13 -2.000346171e-13)
(-0 5.219635931e-13 -4.01104582e-13)
(-0 3.255799419e-13 -2.304065404e-13)
(-0 1.06086733e-13 -6.956444942e-14)
(-0 1.385519505e-14 -8.462914104e-15)
(-0 1.821736822e-14 -1.041274748e-14)
(-0 1.786512987e-14 -9.594144175e-15)
(-0 7.308082339e-15 -3.700594878e-15)
(-0 1.927175344e-15 -9.230773926e-16)
(-0 2.546371174e-16 -1.156983797e-16)
(-0 1.621367115e-16 -7.006409319e-17)
(-0 5.336741953e-17 -2.198445204e-17)
(-0 3.589503855e-17 -1.412622761e-17)
(-0 1.264382766e-17 -4.762912315e-18)
(-0 3.771065765e-18 -1.362196157e-18)
(-0 9.048091818e-19 -3.139238027e-19)
(-0 5.068935314e-19 -1.691781467e-19)
(-0 1.302397831e-19 -4.189305252e-20)
(-0 2.696912669e-20 -8.366991019e-21)
(-0 5.428569664e-21 -1.626315501e-21)
(-0 8.61070677e-22 -2.480386847e-22)
(-0 3.939662382e-22 -9.415095015e-23)
(-0 8.682467627e-23 -1.233574636e-23)
(-0 6.544210339e-24 -1.586475234e-24)
(-0 0 -0)
(-0 0 0)
(-0 -0 0)
(-0 -0 0)
(-0 -0 0)
(-0 -0 -0)
(-0 0 0)
(-0 0 -0)
(-0 0 -0)
(-0 -1.668511145e-21 -2.793975235e-20)
(-0 -4.849295247e-14 -2.221614325e-13)
(-0 -2.982104323e-13 -7.391142679e-13)
(-0 -4.088558955e-14 -1.174026109e-13)
(-0 4.162054477e-14 -1.778863751e-13)
(-0 3.423485914e-11 -3.141905245e-11)
(-0 1.361229014e-05 -5.819523318e-06)
(-0 5.078073622e-05 -836.7727132)
(-0 1.582230354e-05 -792.6788019)
(-0 2.015644875e-07 -6.628831606e-07)
(-0 1.566649891e-11 -3.611780763e-11)
(-0 5.862185212e-12 -1.046933293e-11)
(-0 1.772135307e-12 -2.591404909e-12)
(-0 3.798772678e-12 -4.711330056e-12)
(-0 2.105176823e-12 -2.268829165e-12)
(-0 5.56396882e-12 -5.304409396e-12)
(-0 6.797932447e-13 -5.811377112e-13)
(-0 7.383548793e-13 -5.721296872e-13)
(-0 5.647199494e-13 -4.001207271e-13)
(-0 4.621854758e-13 -3.01619765e-13)
(-0 2.315959206e-13 -1.400646245e-13)
(-0 9.559870048e-14 -5.386322544e-14)
(-0 6.734923834e-14 -3.551429069e-14)
(-0 3.826369769e-14 -1.895967863e-14)
(-0 9.321353241e-15 -4.355517861e-15)
(-0 3.706033299e-15 -1.63818665e-15)
(-0 2.337893098e-15 -9.804101849e-16)
(-0 6.769054928e-16 -2.699954736e-16)
(-0 2.13787261e-16 -8.129592487e-17)
(-0 7.37774261e-17 -2.680359895e-17)
(-0 1.80714337e-17 -6.28480862e-18)
(-0 4.001723797e-18 -1.334600824e-18)
(-0 1.547917551e-18 -4.958821619e-19)
(-0 3.871345616e-19 -1.193128747e-19)
(-0 1.771822673e-19 -5.261440409e-20)
(-0 1.607695583e-20 -4.604913878e-21)
(-0 1.516701221e-21 -4.187264375e-22)
(-0 5.319040872e-22 -1.394555807e-22)
(-0 1.022885533e-22 -2.445845574e-23)
(-0 1.965995055e-23 -3.936541025e-24)
(-0 4.670994881e-24 -9.96478908e-25)
(-0 0 -0)
(-0 0 0)
(-0 -0 0)
(-0 -0 -0)
(-0 -0 -0)
(-0 -0 -0)
(-0 0 -0)
(-0 0 -0)
(-0 0 -0)
(-0 -9.689749665e-26 -1.604927294e-24)
(-0 -6.845582659e-16 -3.135015033e-15)
(-0 -1.392514356e-13 -3.098345262e-13)
(-0 -1.557869095e-13 -2.573093831e-13)
(-0 -1.538032779e-14 -8.316813658e-14)
(-0 3.147068254e-12 -4.624542046e-12)
(-0 9.909158502e-07 -5.296508211e-07)
(-0 0.0002426849574 -1435.303636)
(-0 2.530781955e-05 -1353.361773)
(-0 1.500006496e-07 -4.494285848e-07)
(-0 6.480061181e-12 -1.357054926e-11)
(-0 1.769948189e-11 -2.873628434e-11)
(-0 1.253586788e-12 -1.668960087e-12)
(-0 4.228462087e-12 -4.781335558e-12)
(-0 1.017402681e-11 -1.000892847e-11)
(-0 1.253841515e-12 -1.092173958e-12)
(-0 2.162971627e-12 -1.690756869e-12)
(-0 1.999561333e-12 -1.417609943e-12)
(-0 9.596678754e-13 -6.224210805e-13)
(-0 1.125343049e-12 -6.725221001e-13)
(-0 6.720774057e-13 -3.723374289e-13)
(-0 3.416244244e-13 -1.763707965e-13)
(-0 4.265136571e-14 -2.061290996e-14)
(-0 4.955882901e-14 -2.251045759e-14)
(-0 2.499385611e-14 -1.070741102e-14)
(-0 1.029244451e-14 -4.171806374e-15)
(-0 1.783582971e-15 -6.859318946e-16)
(-0 3.878319486e-16 -1.418804893e-16)
(-0 6.152503291e-17 -2.146001087e-17)
(-0 7.765856624e-18 -2.588128676e-18)
(-0 2.140632098e-18 -6.829664198e-19)
(-0 2.512309577e-18 -7.687180241e-19)
(-0 1.500894415e-18 -4.411614573e-19)
(-0 3.800537339e-19 -1.07473987e-19)
(-0 2.815350976e-19 -7.669285657e-20)
(-0 2.59149781e-20 -6.812935969e-21)
(-0 1.368234201e-20 -3.471744077e-21)
(-0 2.75919663e-21 -6.731422562e-22)
(-0 6.686339609e-22 -1.625893728e-22)
(-0 8.541888654e-23 -2.143214992e-23)
(-0 1.650586268e-23 -3.681605059e-24)
(-0 0 0)
(-0 0 0)
(-0 -0 -0)
(-0 -0 0)
(-0 -0 -0)
(-0 -0 -0)
(-0 0 -0)
(-0 0 -0)
(-0 0 -0)
(-0 -2.801498004e-25 -4.455463481e-24)
(-0 -1.477404615e-19 -6.488592574e-19)
(-0 -8.198548116e-14 -1.705557949e-13)
(-0 -2.40750463e-13 -3.116623944e-13)
(-0 -2.202573492e-13 -3.363173523e-13)
(-0 3.987177019e-13 -1.929339009e-12)
(-0 1.862900724e-07 -1.345097463e-07)
(-0 0.0002674198991 -2388.360749)
(-0 4.260969414e-05 -2238.73289)
(-0 2.285609776e-07 -5.994910025e-07)
(-0 3.628927367e-11 -6.743552207e-11)
(-0 2.652900975e-11 -3.851846846e-11)
(-0 2.476073524e-11 -2.962741956e-11)
(-0 4.082510495e-12 -4.162852575e-12)
(-0 2.144938334e-12 -1.907337688e-12)
(-0 1.183003328e-11 -9.330146285e-12)
(-0 6.199185685e-12 -4.392987178e-12)
(-0 2.065085495e-12 -1.328501566e-12)
(-0 2.830217748e-12 -1.666850719e-12)
(-0 2.445224434e-12 -1.327688745e-12)
(-0 2.23140544e-13 -1.123681881e-13)
(-0 4.441837852e-13 -2.085170398e-13)
(-0 1.832681913e-13 -8.055997896e-14)
(-0 1.813481608e-14 -7.493849672e-15)
(-0 1.623626305e-14 -6.329234686e-15)
(-0 1.150274167e-14 -4.243191429e-15)
(-0 4.988425329e-15 -1.74621472e-15)
(-0 1.569805072e-15 -5.22785289e-16)
(-0 5.257052923e-16 -1.669413192e-16)
(-0 2.133834509e-16 -6.4749964e-17)
(-0 6.547271968e-17 -1.902102446e-17)
(-0 2.094698654e-17 -5.836624295e-18)
(-0 4.32983536e-18 -1.159013704e-18)
(-0 2.066495193e-18 -5.322078034e-19)
(-0 5.856687296e-19 -1.453273203e-19)
(-0 1.623439015e-19 -3.887567312e-20)
(-0 2.655751356e-20 -6.152072357e-21)
(-0 4.409085105e-21 -9.939625323e-22)
(-0 1.515124485e-21 -3.440163393e-22)
(-0 3.236480978e-22 -7.730021295e-23)
(-0 4.787553231e-23 -1.144013724e-23)
(-0 6.025583397e-24 -1.634848208e-24)
(-0 0 -0)
(-0 -0 -0)
(-0 -0 0)
(-0 -0 -0)
(-0 -0 -0)
(-0 0 -0)
(-0 0 -0)
(-0 0 -0)
(-0 -1.174442191e-22 -1.759535053e-21)
(-0 -1.946517728e-21 -7.957401636e-21)
(-0 -2.244155361e-14 -4.393145846e-14)
(-0 -2.60048013e-13 -3.005988352e-13)
(-0 -5.035150043e-13 -4.613701333e-13)
(-0 -1.427226518e-12 -3.872175936e-12)
(-0 3.561939431e-07 -4.010985675e-07)
(-0 0.0002648691411 -3806.127314)
(-0 7.499005883e-05 -3563.225304)
(-0 6.949321651e-07 -1.549373518e-06)
(-0 6.174308821e-11 -9.987613585e-11)
(-0 3.615260542e-11 -4.625661485e-11)
(-0 2.556836957e-11 -2.715575518e-11)
(-0 1.634111005e-11 -1.48587095e-11)
(-0 2.344558307e-11 -1.864916427e-11)
(-0 1.579460014e-11 -1.116704935e-11)
(-0 6.457197273e-12 -4.108402053e-12)
(-0 5.735740972e-12 -3.316763557e-12)
(-0 2.019701875e-12 -1.070134763e-12)
(-0 2.393289873e-12 -1.169856893e-12)
(-0 7.141250264e-13 -3.239075456e-13)
(-0 4.570595326e-13 -1.933342762e-13)
(-0 2.130764431e-13 -8.442388092e-14)
(-0 5.408218695e-14 -2.014918939e-14)
(-0 3.07363097e-14 -1.080492754e-14)
(-0 1.814115759e-14 -6.035856161e-15)
(-0 4.910764928e-15 -1.550711553e-15)
(-0 2.104760534e-15 -6.323872742e-16)
(-0 2.828685077e-16 -8.105053616e-17)
(-0 1.17186903e-16 -3.208840256e-17)
(-0 4.735861852e-17 -1.241646004e-17)
(-0 2.094156275e-17 -5.266270975e-18)
(-0 5.747390054e-18 -1.388569267e-18)
(-0 3.600976129e-18 -8.370950762e-19)
(-0 6.7613486e-19 -1.514535453e-19)
(-0 2.331893987e-19 -5.03877321e-20)
(-0 5.877933099e-20 -1.227773308e-20)
(-0 9.198568153e-21 -1.863798007e-21)
(-0 1.552197741e-21 -3.057246982e-22)
(-0 5.756630344e-22 -1.144498605e-22)
(-0 1.310145441e-22 -2.728021674e-23)
(-0 1.190133483e-23 -1.122767437e-24)
(-0 0 -0)
(-0 -0 0)
(-0 -0 0)
(-0 -0 -0)
(-0 -0 0)
(-0 0 0)
(-0 0 -0)
(-0 0 -0)
(-0 -1.079721569e-22 -1.458398984e-21)
(-0 -5.584987742e-21 -2.046665371e-20)
(-0 -3.964611771e-16 -6.986185461e-16)
(-0 -9.888995317e-14 -1.053971927e-13)
(-0 -4.0229998e-13 -3.022954682e-13)
(-0 -2.239356556e-12 -2.111568662e-12)
(-0 1.76698484e-07 -5.497465249e-07)
(-0 0.0002156222139 -5740.888849)
(-0 0.0001012930221 -5415.239626)
(-0 2.083772899e-06 -3.866358635e-06)
(-0 3.314395981e-11 -4.590299975e-11)
(-0 7.026909611e-11 -7.811099365e-11)
(-0 4.697840801e-11 -4.371862893e-11)
(-0 5.519713279e-11 -4.421306042e-11)
(-0 3.077570381e-11 -2.164123016e-11)
(-0 4.716546697e-11 -2.955226255e-11)
(-0 7.155008256e-12 -4.041371512e-12)
(-0 1.469391496e-11 -7.552660132e-12)
(-0 3.018823907e-12 -1.423093427e-12)
(-0 3.56193403e-12 -1.550158015e-12)
(-0 2.056809292e-13 -8.310573206e-14)
(-0 3.683651601e-13 -1.388643061e-13)
(-0 1.954118827e-13 -6.902467949e-14)
(-0 9.793402122e-14 -3.253712709e-14)
(-0 7.980773455e-14 -2.502384886e-14)
(-0 2.132384176e-14 -6.329333787e-15)
(-0 9.316644504e-15 -2.624982401e-15)
(-0 2.159647236e-15 -5.790338921e-16)
(-0 7.975795936e-16 -2.039545332e-16)
(-0 2.242868551e-16 -5.481523706e-17)
(-0 4.524516439e-17 -1.05884943e-17)
(-0 7.625013444e-18 -1.711701125e-18)
(-0 1.451058444e-17 -3.1296872e-18)
(-0 2.660815909e-18 -5.522272774e-19)
(-0 6.94031087e-19 -1.387994902e-19)
(-0 2.314564809e-19 -4.466429525e-20)
(-0 5.428874848e-20 -1.011594565e-20)
(-0 1.87305326e-20 -3.366395762e-21)
(-0 3.806759833e-21 -6.602666984e-22)
(-0 7.597271414e-22 -1.293260488e-22)
(-0 2.281943172e-22 -3.277476728e-23)
(-0 2.658209124e-23 3.166819534e-24)
(-0 3.051716656e-24 -9.341989762e-26)
(-0 -0 0)
(-0 -0 0)
(-0 -0 0)
(-0 -0 -0)
(-0 -0 -0)
(-0 0 0)
(-0 0 0)
(-0 -4.749040496e-23 -5.514620874e-22)
(-0 -1.167999797e-20 -3.70199831e-20)
(-0 -1.522237692e-19 -2.330858256e-19)
(-0 -4.894205516e-15 -4.678207255e-15)
(-0 -1.921249688e-13 -1.316564747e-13)
(-0 -1.151442736e-13 -7.01993479e-14)
(-0 -1.097989755e-07 -2.899638384e-07)
(-0 8.935656159e-05 -8119.239699)
(-0 -5.376921853e-05 -7792.979635)
(-0 2.55463477e-05 -3.946224314e-05)
(-0 9.012853576e-11 -1.052053909e-10)
(-0 1.169894832e-10 -1.113035779e-10)
(-0 8.78350557e-11 -7.059285274e-11)
(-0 4.329227712e-11 -3.011799115e-11)
(-0 6.187184136e-11 -3.792883985e-11)
(-0 1.430858275e-11 -7.835657361e-12)
(-0 1.560259464e-11 -7.716315656e-12)
(-0 1.786883197e-11 -8.052272164e-12)
(-0 1.195264185e-11 -4.944664382e-12)
(-0 5.935425659e-12 -2.268471924e-12)
(-0 1.686332632e-12 -5.987040715e-13)
(-0 5.368840746e-13 -1.779146791e-13)
(-0 3.081685973e-13 -9.572133463e-14)
(-0 1.056344057e-13 -3.086996733e-14)
(-0 5.137783713e-14 -1.41731339e-14)
(-0 1.226179226e-14 -3.202624045e-15)
(-0 7.868484985e-15 -1.951113309e-15)
(-0 3.099381891e-15 -7.314340589e-16)
(-0 1.260938389e-15 -2.838429302e-16)
(-0 6.476725914e-16 -1.393532161e-16)