/*--------------------------------*- C++ -*----------------------------------*\
  =========                 |
  \\      /  F ield         | OpenFOAM: The Open Source CFD Toolbox
   \\    /   O peration     | Website:  https://openfoam.org
    \\  /    A nd           | Version:  6
     \\/     M anipulation  |
\*---------------------------------------------------------------------------*/
FoamFile
{
    version     2.0;
    format      ascii;
    class       volScalarField;
    location    "0.12";
    object      Num_divU;
}
// * * * * * * * * * * * * * * * * * * * * * * * * * * * * * * * * * * * * * //

dimensions      [0 0 -1 0 0 0 0];

internalField   nonuniform List<scalar> 
2500
(
7.369563468e-07
-2.783496768e-07
-4.494238623e-07
-1.898826988e-07
1.797968855e-07
2.265900447e-10
-1.145777727e-07
-2.006537148e-07
-2.257611715e-07
3.027390192e-22
-1.760389254e-17
-3.957256408e-17
-6.021367927e-17
-8.029191667e-17
-1.00107123e-16
-1.197030877e-16
-1.390581085e-16
-1.581375155e-16
-1.769057089e-16
-1.953282006e-16
-2.133734773e-16
-2.310119048e-16
-2.482141514e-16
-2.649519352e-16
-2.811994012e-16
-2.969337912e-16
-3.12135086e-16
-3.267852458e-16
-3.408678913e-16
-3.543682315e-16
-3.672733016e-16
-3.795719919e-16
-3.912551583e-16
-4.023154701e-16
-4.127472616e-16
-4.225463782e-16
-4.317099554e-16
-4.402363175e-16
-4.481247191e-16
-4.553753716e-16
-4.619890187e-16
-4.679671851e-16
-4.733116703e-16
-4.780247503e-16
-4.821088212e-16
-4.855665661e-16
-4.884007366e-16
-4.90614083e-16
-4.922089297e-16
-4.931841283e-16
-1.073092218e-08
-4.078225597e-07
-7.304133481e-08
-2.188904638e-07
-9.801492276e-08
1.420419842e-07
6.008624805e-07
1.208500915e-06
6.500570951e-08
-3.512483136e-17
-7.361931341e-17
-1.115319921e-16
-1.476092045e-16
-1.830243754e-16
-2.180085553e-16
-2.525491937e-16
-2.865894396e-16
-3.200670249e-16
-3.529231863e-16
-3.85100402e-16
-4.165435447e-16
-4.472008349e-16
-4.770238041e-16
-5.059678757e-16
-5.339925524e-16
-5.610616264e-16
-5.871426132e-16
-6.122064347e-16
-6.362271705e-16
-6.591821299e-16
-6.810519478e-16
-7.018205189e-16
-7.214749444e-16
-7.400051884e-16
-7.574039429e-16
-7.736661039e-16
-7.887887532e-16
-8.027706392e-16
-8.156119832e-16
-8.273143668e-16
-8.378802971e-16
-8.473131403e-16
-8.556168906e-16
-8.627960848e-16
-8.688559313e-16
-8.738025942e-16
-8.776446371e-16
-8.803973296e-16
-8.82096989e-16
-3.893813211e-16
1.469330113e-08
-1.838263695e-07
1.42715585e-07
1.736327931e-07
-8.593875359e-08
-1.990405991e-07
-1.851152778e-07
3.366304647e-07
2.077294471e-07
-2.878020199e-17
-6.133511388e-17
-9.41018121e-17
-1.254559249e-16
-1.563169057e-16
-1.868302627e-16
-2.169671625e-16
-2.466743046e-16
-2.758969533e-16
-3.045832764e-16
-3.326820908e-16
-3.601447247e-16
-3.869263304e-16
-4.12985245e-16
-4.382824431e-16
-4.627820552e-16
-4.864516029e-16
-5.09262273e-16
-5.311884877e-16
-5.522075433e-16
-5.722996236e-16
-5.914476687e-16
-6.096374625e-16
-6.268575022e-16
-6.430988908e-16
-6.583549278e-16
-6.726211517e-16
-6.858947558e-16
-6.981746074e-16
-7.094608737e-16
-7.197547349e-16
-7.290583836e-16
-7.373745577e-16
-7.44706621e-16
-7.510582022e-16
-7.564331109e-16
-7.608351861e-16
-7.642675464e-16
-7.667302751e-16
-7.682092154e-16
-3.793576042e-16
7.009528511e-08
2.849898232e-07
1.300565048e-07
2.239939843e-07
-4.090373663e-08
-1.09858512e-07
-6.313308971e-08
3.072037894e-07
3.170888141e-07
-2.833124154e-17
-6.023567011e-17
-9.24734574e-17
-1.233675871e-16
-1.537924081e-16
-1.838800423e-16
-2.135994017e-16
-2.428956208e-16
-2.717137557e-16
-3.000031498e-16
-3.277138398e-16
-3.547975055e-16
-3.812096547e-16
-4.069092618e-16
-4.318581893e-16
-4.560209334e-16
-4.793654332e-16
-5.01863081e-16
-5.23488573e-16
-5.442195582e-16
-5.640366104e-16
-5.829229682e-16
-6.008646574e-16
-6.178503104e-16
-6.338710645e-16
-6.489204059e-16
-6.62993817e-16
-6.760886351e-16
-6.882036689e-16
-6.993390316e-16
-7.094959619e-16
-7.186764744e-16
-7.268832775e-16
-7.341194236e-16
-7.403882482e-16
-7.456929345e-16
-7.500362744e-16
-7.534198653e-16
-7.558426341e-16
-7.572988309e-16
-3.784869203e-16
-6.141797666e-08
5.922587451e-07
9.306333345e-08
5.75919906e-08
-1.588062239e-07
-2.902119063e-07
-1.407937113e-07
3.900735902e-08
2.995336039e-07
-2.83161651e-17
-6.016575395e-17
-9.236294342e-17
-1.232249571e-16
-1.53619821e-16
-1.83677048e-16
-2.133673633e-16
-2.42634685e-16
-2.714236317e-16
-2.996834292e-16
-3.27364928e-16
-3.544201254e-16
-3.808040958e-16
-4.064758612e-16
-4.313973487e-16
-4.555334606e-16
-4.788520875e-16
-5.01324537e-16
-5.229254814e-16
-5.436326716e-16
-5.634266795e-16
-5.822908501e-16
-6.002113016e-16
-6.171766285e-16
-6.33178071e-16
-6.482090886e-16
-6.622651311e-16
-6.753435898e-16
-6.874432523e-16
-6.985642312e-16
-7.087077636e-16
-7.17875822e-16
-7.260709963e-16
-7.332962043e-16
-7.395545368e-16
-7.448488588e-16
-7.491815972e-16
-7.525540653e-16
-7.549661628e-16
-7.564162608e-16
-3.784857204e-16
-8.157397856e-08
5.807649786e-07
2.644185766e-07
-1.057019179e-07
-1.876357201e-07
-3.504904417e-07
-6.752793477e-08
-7.555734969e-08
1.443816821e-07
-2.83282932e-17
-6.018871298e-17
-9.239340073e-17
-1.232640548e-16
-1.536685277e-16
-1.837331981e-16
-2.134309108e-16
-2.427051587e-16
-2.715006797e-16
-2.997660526e-16
-3.274524758e-16
-3.545123104e-16
-3.80900605e-16
-4.065760598e-16
-4.315007743e-16
-4.556397407e-16
-4.789609468e-16
-5.014356899e-16
-5.230385538e-16
-5.43747222e-16
-5.635423055e-16
-5.824072786e-16
-6.00328155e-16
-6.172936487e-16
-6.332950394e-16
-6.483256709e-16
-6.623811255e-16
-6.754587289e-16
-6.875572683e-16
-6.986769042e-16
-7.088188048e-16
-7.179848718e-16
-7.261776824e-16
-7.334000662e-16
-7.39654994e-16
-7.449451406e-16
-7.492728985e-16
-7.526397808e-16
-7.550464633e-16
-7.564928635e-16
-3.785719983e-16
-5.006483085e-08
2.678622214e-07
4.326983622e-07
-1.526433148e-07
-2.366085806e-07
-2.970706582e-07
1.08785452e-08
1.313840493e-07
-4.51269069e-09
-2.834037679e-17
-6.022159887e-17
-9.243900295e-17
-1.233214059e-16
-1.537385128e-16
-1.838139474e-16
-2.135223763e-16
-2.428064721e-16
-2.716119575e-16
-2.99886748e-16
-3.275816582e-16
-3.546494539e-16
-3.810453145e-16
-4.067277501e-16
-4.316589352e-16
-4.55803856e-16
-4.791306499e-16
-5.016105605e-16
-5.232181326e-16
-5.439310516e-16
-5.637298876e-16
-5.825980401e-16
-6.005217491e-16
-6.17489678e-16
-6.334930056e-16
-6.485252465e-16
-6.625818741e-16
-6.756602592e-16
-6.877592598e-16
-6.98878892e-16
-7.090203702e-16
-7.181856628e-16
-7.263771686e-16
-7.335977512e-16
-7.398502344e-16
-7.451374394e-16
-7.494616149e-16
-7.528246869e-16
-7.55227706e-16
-7.566714303e-16
-3.786710346e-16
8.436222059e-08
1.200981693e-07
3.483228149e-07
-4.099286534e-08
-3.682144866e-07
-1.872447394e-07
-5.539242545e-08
3.953495319e-07
-1.265971544e-08
-2.835342682e-17
-6.02530194e-17
-9.248587968e-17
-1.233822686e-16
-1.538112305e-16
-1.838974927e-16
-2.136163029e-16
-2.429102643e-16
-2.717258078e-16
-3.000105136e-16
-3.277147336e-16
-3.547911445e-16
-3.81194995e-16
-4.068850067e-16
-4.318231677e-16
-4.559746205e-16
-4.79307522e-16
-5.017931596e-16
-5.23405993e-16
-5.441236569e-16
-5.639267474e-16
-5.827987331e-16
-6.007256689e-16
-6.176964383e-16
-6.337022126e-16
-6.487364322e-16
-6.627946746e-16
-6.758742264e-16
-6.87973926e-16
-6.990939172e-16
-7.092353045e-16
-7.18400055e-16
-7.265906114e-16
-7.338097145e-16
-7.400603301e-16
-7.453451245e-16
-7.496666295e-16
-7.530268053e-16
-7.554272296e-16
-7.568687646e-16
-3.7877455e-16
3.499753953e-07
2.074915933e-07
1.297232429e-07
6.12407762e-09
-3.707390418e-07
-1.126767049e-07
-1.064961951e-07
4.176923552e-07
9.692924181e-08
-2.836878695e-17
-6.027992031e-17
-9.252739208e-17
-1.234429521e-16
-1.53884237e-16
-1.839813912e-16
-2.137097938e-16
-2.430135238e-16
-2.71838891e-16
-3.001334363e-16
-3.278472019e-16
-3.549325474e-16
-3.813447844e-16
-4.070425354e-16
-4.31987989e-16
-4.561462459e-16
-4.794855117e-16
-5.019770705e-16
-5.235954056e-16
-5.443180771e-16
-5.641256899e-16
-5.830016838e-16
-6.009322371e-16
-6.179061337e-16
-6.339145342e-16
-6.489510243e-16
-6.630110536e-16
-6.760920079e-16
-6.881926747e-16
-6.993131798e-16
-7.094547288e-16
-7.186191763e-16
-7.268089912e-16
-7.340269735e-16
-7.402760494e-16
-7.455589939e-16
-7.498783658e-16
-7.532363574e-16
-7.556346388e-16
-7.570744071e-16
-3.788804673e-16
5.704196145e-07
4.303260197e-07
-1.663313158e-08
-1.798384399e-07
-1.799121509e-07
-8.862431465e-08
4.174155571e-08
3.122917149e-07
2.342324209e-07
-2.838417839e-17
-6.030453096e-17
-9.255815729e-17
-1.23498114e-16
-1.539546128e-16
-1.840644502e-16
-2.138018124e-16
-2.431153252e-16
-2.719505936e-16
-3.002547909e-16
-3.279778901e-16
-3.550722728e-16
-3.814931045e-16
-4.0719889e-16
-4.321518097e-16
-4.563170299e-16
-4.796628457e-16
-5.021604826e-16
-5.237844381e-16
-5.445122275e-16
-5.643245298e-16
-5.83204731e-16
-6.011390182e-16
-6.181162253e-16
-6.341275175e-16
-6.491664234e-16
-6.63228472e-16
-6.763109751e-16
-6.88412825e-16
-6.995341004e-16
-7.096759159e-16
-7.188403325e-16
-7.270296824e-16
-7.342468258e-16
-7.404947012e-16
-7.457761841e-16
-7.500938774e-16
-7.53450075e-16
-7.558466245e-16
-7.572848377e-16
-3.789873624e-16
4.523556891e-07
5.381638616e-07
-8.461281036e-08
-3.336964235e-07
-5.643209957e-10
-3.235471012e-08
3.382597032e-07
3.949433346e-07
3.274408095e-07
-2.839420999e-17
-6.033173746e-17
-9.257826761e-17
-1.235420916e-16
-1.540184771e-16
-1.841442045e-16
-2.138912506e-16
-2.432146759e-16
-2.720600356e-16
-3.003737279e-16
-3.281060615e-16
-3.552093908e-16
-3.816387441e-16
-4.073526463e-16
-4.323131911e-16
-4.564855382e-16
-4.798379716e-16
-5.023417504e-16
-5.239713713e-16
-5.447043951e-16
-5.645214349e-16
-5.834059245e-16
-6.013441004e-16
-6.1832474e-16
-6.343390464e-16
-6.493805637e-16
-6.634447726e-16
-6.765290498e-16
-6.886322182e-16
-6.997543895e-16
-7.098967632e-16
-7.190612968e-16
-7.27250391e-16
-7.344669732e-16
-7.40713943e-16
-7.459942502e-16
-7.503105956e-16
-7.536653415e-16
-7.560603834e-16
-7.574971652e-16
-3.790938013e-16
1.346655322e-07
3.742745496e-07
-2.817829387e-08
-2.806739624e-07
3.068784927e-08
1.025358382e-07
6.517979189e-07
7.866638126e-07
2.502523911e-07
-2.839433594e-17
-6.036608272e-17
-9.25979916e-17
-1.23574832e-16
-1.540729385e-16
-1.842173432e-16
-2.139765189e-16
-2.433105009e-16
-2.721659877e-16
-3.00489251e-16
-3.282306518e-16
-3.55342751e-16
-3.817804878e-16
-4.075024619e-16
-4.324705655e-16
-4.566501289e-16
-4.800092439e-16
-5.025192086e-16
-5.24154494e-16
-5.448927025e-16
-5.64714496e-16
-5.836033211e-16
-6.015454149e-16
-6.185295797e-16
-6.345469908e-16
-6.495912072e-16
-6.636577265e-16
-6.767438574e-16
-6.888485154e-16
-6.99971762e-16
-7.10114857e-16
-7.192796468e-16
-7.274687239e-16
-7.34684947e-16
-7.409312276e-16
-7.462106338e-16
-7.505258796e-16
-7.538793381e-16
-7.562730799e-16
-7.577085577e-16
-3.791983107e-16
-8.484674163e-08
7.770434723e-08
4.63128315e-08
-7.911879161e-08
-4.842554269e-08
5.229568181e-07
7.547203262e-07
1.166983697e-06
-7.413982893e-08
-2.838675267e-17
-6.040558442e-17
-9.263474348e-17
-1.236061054e-16
-1.541197206e-16
-1.842818346e-16
-2.140558206e-16
-2.434017159e-16
-2.722673882e-16
-3.006000387e-16
-3.283504959e-16
-3.554711761e-16
-3.81917133e-16
-4.076468359e-16
-4.326224403e-16
-4.568090934e-16
-4.801748737e-16
-5.02690996e-16
-5.243319279e-16
-5.45075275e-16
-5.649017246e-16
-5.837948652e-16
-6.017408571e-16
-6.18728511e-16
-6.347491034e-16
-6.497960734e-16
-6.638649668e-16
-6.769530912e-16
-6.890593131e-16
-7.001837817e-16
-7.103276528e-16
-7.194929424e-16
-7.276821401e-16
-7.348981435e-16
-7.411440147e-16
-7.464226732e-16
-7.507369686e-16
-7.540893759e-16
-7.564819154e-16
-7.579160943e-16
-3.792995186e-16
-1.038739866e-07
-9.619223603e-08
8.40388619e-08
6.842555211e-08
1.687552307e-07
8.672389476e-07
3.252794012e-07
8.53329538e-07
-2.754806866e-07
-2.838409492e-17
-6.042824035e-17
-9.269164518e-17
-1.236474214e-16
-1.541653048e-16
-1.843394469e-16
-2.141285326e-16
-2.434872962e-16
-2.723633059e-16
-3.00705141e-16
-3.284643577e-16
-3.555934962e-16
-3.820473093e-16
-4.077844863e-16
-4.327672222e-16
-4.569607279e-16
-4.803330245e-16
-5.028551945e-16
-5.24501667e-16
-5.452500372e-16
-5.650810744e-16
-5.83978385e-16
-6.019281915e-16
-6.189193491e-16
-6.34943053e-16
-6.499928047e-16
-6.640640794e-16
-6.771542717e-16
-6.892621193e-16
-7.0038789e-16
-7.105326853e-16
-7.196985549e-16
-7.278880313e-16
-7.351039624e-16
-7.413495131e-16
-7.466275984e-16
-7.509411327e-16
-7.542925691e-16
-7.566840158e-16
-7.581170058e-16
-3.793959666e-16
-4.580190961e-09
-4.973094858e-08
8.563043782e-08
1.874987757e-07
5.483551691e-07
6.128037057e-07
-4.70783412e-08
-5.01716842e-07
-5.750780187e-08
-2.840378032e-17
-6.04212349e-17
-9.275061051e-17
-1.236984301e-16
-1.542136198e-16
-1.843937875e-16
-2.141955292e-16
-2.435666055e-16
-2.724527188e-16
-3.008034326e-16
-3.285711017e-16
-3.557083595e-16
-3.821697728e-16
-4.079139851e-16
-4.329034158e-16
-4.571033763e-16
-4.804819151e-16
-5.030098949e-16
-5.246617048e-16
-5.454149821e-16
-5.652504383e-16
-5.841517657e-16
-6.02105265e-16
-6.190997766e-16
-6.351265482e-16
-6.501790077e-16
-6.642527023e-16
-6.773448773e-16
-6.894544756e-16
-7.00581534e-16
-7.107273418e-16
-7.198938798e-16
-7.28083704e-16
-7.352997516e-16
-7.415450501e-16
-7.468227127e-16
-7.511355623e-16
-7.544861694e-16
-7.568765591e-16
-7.583083942e-16
-3.794862674e-16
7.046889502e-08
1.021279692e-07
6.755819579e-08
2.853364118e-07
6.318101334e-07
4.822548447e-07
1.741516651e-07
-1.934836848e-06
2.203899173e-07
-2.844443781e-17
-6.041324233e-17
-9.279825495e-17
-1.237497184e-16
-1.542629764e-16
-1.844465619e-16
-2.14257879e-16
-2.436392692e-16
-2.725347208e-16
-3.008937927e-16
-3.286694476e-16
-3.558143287e-16
-3.822829968e-16
-4.080338648e-16
-4.330295627e-16
-4.572355118e-16
-4.806197165e-16
-5.031532047e-16
-5.248100676e-16
-5.455679395e-16
-5.654076471e-16
-5.843128215e-16
-6.022698288e-16
-6.192675722e-16
-6.352972553e-16
-6.503523456e-16
-6.64428346e-16
-6.775225463e-16
-6.896337719e-16
-7.007622073e-16
-7.109090798e-16
-7.200763164e-16
-7.282665538e-16
-7.354827451e-16
-7.417279414e-16
-7.470052402e-16
-7.513175407e-16
-7.546673166e-16
-7.570568153e-16
-7.584874749e-16
-3.795690735e-16
5.112734434e-08
2.097504742e-07
8.556056403e-08
2.718429132e-07
3.976472731e-07
5.398825189e-08
8.641383071e-07
-1.983607784e-06
3.468949865e-07
-2.848343701e-17
-6.04208731e-17
-9.282726097e-17
-1.237902426e-16
-1.543077157e-16
-1.844963824e-16
-2.143152515e-16
-2.437049346e-16
-2.726085757e-16
-3.009753702e-16
-3.28758249e-16
-3.559101281e-16
-3.823854375e-16
-4.081425597e-16
-4.331439964e-16
-4.573554549e-16
-4.807448943e-16
-5.032833017e-16
-5.249448532e-16
-5.457070238e-16
-5.655506192e-16
-5.84459379e-16
-6.024196951e-16
-6.194204195e-16
-6.354528441e-16
-6.505104383e-16
-6.645886493e-16
-6.776847707e-16
-6.897976154e-16
-7.009274097e-16
-7.110752708e-16
-7.20243279e-16
-7.284339796e-16
-7.356503662e-16
-7.418955182e-16
-7.471725608e-16
-7.514843286e-16
-7.548334471e-16
-7.572220172e-16
-7.586516424e-16
-3.796430409e-16
-4.541506481e-08
1.960736057e-07
1.397428932e-07
1.812463013e-07
1.065271225e-07
-5.528474491e-07
1.278183563e-06
-5.483005292e-07
1.843632396e-07
-2.85071904e-17
-6.045459397e-17
-9.284404206e-17
-1.238178671e-16
-1.54344122e-16
-1.845406172e-16
-2.143662499e-16
-2.437625795e-16
-2.726733799e-16
-3.010472081e-16
-3.288365131e-16
-3.559944449e-16
-3.824756746e-16
-4.082384485e-16
-4.332452129e-16
-4.574615491e-16
-4.808556475e-16
-5.033984574e-16
-5.250641283e-16
-5.458302035e-16
-5.656773897e-16
-5.845894096e-16
-6.025527169e-16
-6.195562351e-16
-6.355911749e-16
-6.506510726e-16
-6.647313133e-16
-6.778292257e-16
-6.899436317e-16
-7.01074636e-16
-7.112235502e-16
-7.203922737e-16
-7.285834678e-16
-7.358000866e-16
-7.420452574e-16
-7.473220431e-16
-7.516333869e-16
-7.549819012e-16
-7.573696015e-16
-7.587982124e-16
-3.79706986e-16
-1.736765417e-07
4.603640382e-08
1.394801714e-07
2.69739347e-07
2.265959269e-07
-7.759189892e-07
9.683727147e-07
1.154562523e-06
1.07744124e-08
-2.851244198e-17
-6.050628989e-17
-9.286059498e-17
-1.238396489e-16
-1.543740242e-16
-1.845784031e-16
-2.144097225e-16
-2.438114873e-16
-2.727282665e-16
-3.011082654e-16
-3.289031675e-16
-3.560662698e-16
-3.825524144e-16
-4.083201266e-16
-4.333315613e-16
-4.575522255e-16
-4.809503961e-16
-5.034969829e-16
-5.251662463e-16
-5.459356741e-16
-5.657860045e-16
-5.847009521e-16
-6.026669106e-16
-6.196728861e-16
-6.357100933e-16
-6.507720066e-16
-6.648541299e-16
-6.779536821e-16
-6.900694904e-16
-7.012016948e-16
-7.113515131e-16
-7.205209589e-16
-7.287126366e-16
-7.35929521e-16
-7.42174694e-16
-7.474513408e-16
-7.517622718e-16
-7.551101927e-16
-7.574971735e-16
-7.589248197e-16
-3.7975979e-16
-2.670664737e-07
-1.619318982e-07
-8.160820316e-08
2.353266115e-07
5.21494202e-07
-5.762203564e-07
8.845915425e-08
1.536846433e-06
1.193393659e-07
-2.850437707e-17
-6.053778846e-17
-9.287016378e-17
-1.238562639e-16
-1.543982633e-16
-1.846092431e-16
-2.144449552e-16
-2.438510728e-16
-2.727726344e-16
-3.011577124e-16
-3.289572572e-16
-3.561244519e-16
-3.826145952e-16
-4.083862539e-16
-4.334016062e-16
-4.576259572e-16
-4.810274831e-16
-5.035772373e-16
-5.252494836e-16
-5.460217199e-16
-5.658746744e-16
-5.847921045e-16
-6.027603607e-16
-6.197684474e-16
-6.358076307e-16
-6.508713454e-16
-6.649550797e-16
-6.780560468e-16
-6.901730906e-16
-7.013063849e-16
-7.114570648e-16
-7.206271509e-16
-7.288192833e-16
-7.360363803e-16
-7.422816377e-16
-7.475580967e-16
-7.518687359e-16
-7.552161127e-16
-7.576023887e-16
-7.590291747e-16
-3.79800356e-16
-2.753779845e-07
-2.641084988e-07
-3.899215096e-07
-8.913298477e-08
7.072680534e-07
8.001766121e-08
-9.329348267e-07
7.611965989e-07
1.719330649e-07
-2.849743419e-17
-6.054452044e-17
-9.287198681e-17
-1.238676293e-16
-1.544168066e-16
-1.846326114e-16
-2.144713116e-16
-2.438808717e-16
-2.728060002e-16
-3.011947614e-16
-3.289978798e-16
-3.561681376e-16
-3.826611584e-16
-4.084357892e-16
-4.334540912e-16
-4.576813106e-16
-4.81085489e-16
-5.036377398e-16
-5.253122925e-16
-5.460867422e-16
-5.659418733e-16
-5.848612378e-16
-6.028313805e-16
-6.198411828e-16
-6.35881979e-16
-6.509471623e-16
-6.650322324e-16
-6.781344549e-16
-6.90252567e-16
-7.013867163e-16
-7.115381676e-16
-7.207088435e-16
-7.289013589e-16
-7.361186993e-16
-7.423639958e-16
-7.476403393e-16
-7.519506742e-16
-7.55297609e-16
-7.576832886e-16
-7.59109258e-16
-3.798278172e-16
-1.980254762e-07
-1.427827647e-07
-4.944045424e-07
-5.112347038e-07
5.348529621e-07
9.917013104e-07
-1.096038851e-06
1.0239871e-07
1.794173454e-07
-2.849515768e-17
-6.05321226e-17
-9.286610511e-17
-1.238719215e-16
-1.544282771e-16
-1.846478079e-16
-2.144885489e-16
-2.439003979e-16
-2.728276784e-16
-3.012187057e-16
-3.290241464e-16
-3.561964832e-16
-3.826913806e-16
-4.084678221e-16
-4.334880397e-16
-4.577171373e-16
-4.811231422e-16
-5.036771086e-16
-5.253533239e-16
-5.461293743e-16
-5.659859842e-16
-5.849068628e-16
-6.028784e-16
-6.198895363e-16
-6.359315273e-16
-6.509978573e-16
-6.650839865e-16
-6.781871345e-16
-6.903060918e-16
-7.014410173e-16
-7.115930633e-16
-7.207642018e-16
-7.289570557e-16
-7.361746244e-16
-7.424199558e-16
-7.476962058e-16
-7.520063e-16
-7.553527961e-16
-7.577378979e-16
-7.591631943e-16
-3.798413593e-16
-9.925147161e-08
1.384485968e-07
-2.65547592e-07
-6.384456499e-07
6.452270718e-08
1.299519239e-06
-7.30670877e-07
-8.291437879e-08
1.669768842e-07
-2.849259345e-17
-6.051514541e-17
-9.285699715e-17
-1.238679583e-16
-1.544302109e-16
-1.846530053e-16
-2.144958439e-16
-2.439090661e-16
-2.728370336e-16
-3.01228736e-16
-3.290351254e-16
-3.562085204e-16
-3.827042731e-16
-4.08481535e-16
-4.335025814e-16
-4.577325455e-16
-4.811393962e-16
-5.036942182e-16
-5.253713182e-16
-5.461482949e-16
-5.660058446e-16
-5.849276333e-16
-6.029000847e-16
-6.199120713e-16
-6.359548873e-16
-6.51022007e-16
-6.651088312e-16
-6.782126551e-16
-6.903322561e-16
-7.014677389e-16
-7.116202068e-16
-7.207917387e-16
-7.289848801e-16
-7.362025701e-16
-7.424479513e-16
-7.477241239e-16
-7.520339718e-16
-7.553801692e-16
-7.577647798e-16
-7.591894705e-16
-3.798403586e-16
-4.48854854e-08
4.041344773e-07
1.447031219e-07
-3.010872289e-07
-1.127422474e-07
1.181321695e-06
-1.322614007e-07
1.534081811e-07
1.31505226e-07
-2.8485465e-17
-6.050464604e-17
-9.28531114e-17
-1.238590236e-16
-1.544225916e-16
-1.846470293e-16
-2.144920097e-16
-2.43905948e-16
-2.728334508e-16
-3.01224355e-16
-3.290302268e-16
-3.562033312e-16
-3.826989505e-16
-4.084760127e-16
-4.334968791e-16
-4.577266356e-16
-4.811333578e-16
-5.036881872e-16
-5.253653647e-16
-5.461425182e-16
-5.660003681e-16
-5.849224998e-16
-6.028952996e-16
-6.199076775e-16
-6.359508701e-16
-6.510183711e-16
-6.651055985e-16
-6.782098215e-16
-6.903297841e-16
-7.014655654e-16
-7.116183618e-16
-7.207901403e-16
-7.289834693e-16
-7.362012622e-16
-7.42446676e-16
-7.477227636e-16
-7.520324558e-16
-7.553783437e-16
-7.5776259e-16
-7.591867431e-16
-3.798242545e-16
-4.019426842e-08
5.376235598e-07
4.662724248e-07
1.526701392e-07
4.048267686e-08
9.459619707e-07
2.672579661e-07
5.175915693e-07
1.104194802e-07
-2.847614374e-17
-6.049944097e-17
-9.285760931e-17
-1.238501043e-16
-1.544085808e-16
-1.846310017e-16
-2.144766641e-16
-2.438899431e-16
-2.728160883e-16
-3.012052529e-16
-3.290092236e-16
-3.561806359e-16
-3.826748309e-16
-4.084505953e-16
-4.334701736e-16
-4.576987591e-16
-4.811043674e-16
-5.036582203e-16
-5.253346658e-16
-5.461112622e-16
-5.659687015e-16
-5.848905586e-16
-6.028631731e-16
-6.198754303e-16
-6.359185471e-16
-6.509860526e-16
-6.650733257e-16
-6.781776134e-16
-6.902976791e-16
-7.014336057e-16
-7.11586549e-16
-7.207584181e-16
-7.289518632e-16
-7.361697157e-16
-7.42415091e-16
-7.476911068e-16
-7.520006682e-16
-7.553463457e-16
-7.577302658e-16
-7.591540384e-16
-3.797927491e-16
-6.200812408e-08
5.333676157e-07
6.000342343e-07
4.411386691e-07
3.115995744e-07
7.669664594e-07
3.283512283e-07
4.172425844e-07
9.583169049e-08
-2.847255885e-17
-6.049394137e-17
-9.28657858e-17
-1.238428795e-16
-1.543907704e-16
-1.846070624e-16
-2.144507032e-16
-2.438609353e-16
-2.727841016e-16
-3.011706414e-16
-3.289717659e-16
-3.561402347e-16
-3.826316207e-16
-4.084048619e-16
-4.33422036e-16
-4.576483247e-16
-4.810518552e-16
-5.036038696e-16
-5.2527868e-16
-5.460539321e-16
-5.659103008e-16
-5.848312286e-16
-6.028030888e-16
-6.198146911e-16
-6.358573104e-16
-6.509243655e-16
-6.650113213e-16
-6.781153675e-16
-6.90235252e-16
-7.013710919e-16
-7.115239812e-16
-7.206958585e-16
-7.288892663e-16
-7.36107111e-16
-7.423525051e-16
-7.47628478e-16
-7.51937921e-16
-7.552834582e-16
-7.576671382e-16
-7.590906393e-16
-3.797455728e-16
-8.952493052e-08
4.3585586e-07
5.56132281e-07
4.69706756e-07
4.639455465e-07
6.105839953e-07
2.204106379e-07
-1.130851483e-07
8.289494627e-08
-2.847925221e-17
-6.048637098e-17
-9.286932612e-17
-1.238354237e-16
-1.543697608e-16
-1.845765477e-16
-2.144149797e-16
-2.438195988e-16
-2.72737684e-16
-3.011199864e-16
-3.28917185e-16
-3.560816644e-16
-3.825690607e-16
-4.083385207e-16
-4.333521524e-16
-4.575751455e-16
-4.809755663e-16
-5.035247353e-16
-5.251971067e-16
-5.459702368e-16
-5.658247551e-16
-5.847441402e-16
-6.027146429e-16
-6.197250957e-16
-6.357666995e-16
-6.508329173e-16
-6.649191279e-16
-6.780226488e-16
-6.901420999e-16
-7.012776263e-16
-7.114303199e-16
-7.20602034e-16
-7.287953665e-16
-7.360131468e-16
-7.422584595e-16
-7.475343914e-16
-7.518437633e-16
-7.551891767e-16
-7.575727778e-16
-7.589960797e-16
-3.796826921e-16
-1.034329615e-07
3.198556353e-07
4.216553747e-07
3.036191254e-07
3.262397119e-07
3.126165183e-07
6.784342375e-08
-5.07313546e-07
1.542713898e-07
-2.84925122e-17
-6.047926635e-17
-9.285893571e-17
-1.238218979e-16
-1.543438736e-16
-1.845393293e-16
-2.14369205e-16
-2.437663441e-16
-2.726775603e-16
-3.01053798e-16
-3.288454225e-16
-3.56004558e-16
-3.824868737e-16
-4.082514229e-16
-4.3326045e-16
-4.574790294e-16
-4.808753725e-16
-5.034207826e-16
-5.250898294e-16
-5.458600513e-16
-5.657120114e-16
-5.84629183e-16
-6.025977314e-16
-6.196064689e-16
-6.356466001e-16
-6.507115123e-16
-6.647967176e-16
-6.778993252e-16
-6.900181191e-16
-7.011530801e-16
-7.113053427e-16
-7.204768212e-16
-7.286699318e-16
-7.358876099e-16
-7.421328581e-16
-7.474087356e-16
-7.51718099e-16
-7.550634907e-16
-7.574470296e-16
-7.588702815e-16
-3.796042321e-16
-1.03807031e-07
2.188606163e-07
2.714030369e-07
9.813029722e-08
-7.013595482e-09
-1.087531115e-07
-3.545204196e-08
-4.356800726e-07
3.632705519e-07
-2.850259441e-17
-6.047478806e-17
-9.282796217e-17
-1.23795329e-16
-1.543095777e-16
-1.844948039e-16
-2.143129303e-16
-2.437006923e-16
-2.726039255e-16
-3.009725532e-16
-3.287568552e-16
-3.559090969e-16
-3.82384995e-16
-4.081435584e-16
-4.331468949e-16
-4.573600557e-16
-4.807513516e-16
-5.032921512e-16
-5.249569982e-16
-5.457234885e-16
-5.655721703e-16
-5.844864292e-16
-6.024524436e-16
-6.19458948e-16
-6.354971492e-16
-6.505603864e-16
-6.646441397e-16
-6.777455654e-16
-6.898633538e-16
-7.009976139e-16
-7.111493226e-16
-7.203203571e-16
-7.285132102e-16
-7.357307088e-16
-7.419758569e-16
-7.472517208e-16
-7.51561086e-16
-7.549065123e-16
-7.572901026e-16
-7.587134442e-16
-3.795103383e-16
-9.864772167e-08
1.251656041e-07
1.127255315e-07
-6.924319717e-08
-2.753423927e-07
-2.815279344e-07
6.584725312e-09
2.14414038e-07
4.614301036e-07
-2.850075107e-17
-6.048003296e-17
-9.278298552e-17
-1.237556061e-16
-1.542655022e-16
-1.844420545e-16
-2.142467235e-16
-2.43622881e-16
-2.725167361e-16
-3.008764007e-16
-3.286517435e-16
-3.557955569e-16
-3.822637129e-16
-4.08015124e-16
-4.330117064e-16
-4.572185276e-16
-4.806038378e-16
-5.031390942e-16
-5.247989139e-16
-5.455609212e-16
-5.654055941e-16
-5.843163205e-16
-6.022791924e-16
-6.192829295e-16
-6.353187032e-16
-6.50379845e-16
-6.644618177e-16
-6.775617431e-16
-6.89678394e-16
-7.008116703e-16
-7.109626073e-16
-7.201331313e-16
-7.283256091e-16
-7.35542899e-16
-7.417879325e-16
-7.470637749e-16
-7.513732116e-16
-7.547187402e-16
-7.571024772e-16
-7.585259688e-16
-3.794014855e-16
-8.997868504e-08
3.146498546e-08
-6.605148631e-08
-2.217676507e-07
-3.178614293e-07
8.622392842e-08
1.106207934e-07
1.082330906e-06
2.607468124e-07
-2.848245649e-17
-6.048124528e-17
-9.272781022e-17
-1.237023372e-16
-1.542100865e-16
-1.843787919e-16
-2.141702544e-16
-2.435336343e-16
-2.724163719e-16
-3.007654291e-16
-3.285304281e-16
-3.556644058e-16
-3.821234791e-16
-4.078665712e-16
-4.328553854e-16
-4.570548447e-16
-4.804332758e-16
-5.029621413e-16
-5.246161579e-16
-5.453729108e-16
-5.65212878e-16
-5.841194082e-16
-6.020785715e-16
-6.19079025e-16
-6.351119202e-16
-6.501705764e-16
-6.642504309e-16
-6.77348596e-16
-6.894637719e-16
-7.005958812e-16
-7.107459633e-16
-7.199158523e-16
-7.281079104e-16
-7.353249041e-16
-7.415698404e-16
-7.468456755e-16
-7.511551861e-16
-7.545009039e-16
-7.568848811e-16
-7.583086132e-16
-3.792781233e-16
-7.475929704e-08
-4.39603643e-08
-2.278732891e-07
-3.535472876e-07
-9.637416981e-08
8.433907791e-07
-2.380883148e-07
1.397793695e-06
-1.885136158e-07
-2.84516185e-17
-6.047335582e-17
-9.267648803e-17
-1.236422416e-16
-1.541448514e-16
-1.843035502e-16
-2.140824221e-16
-2.43432939e-16
-2.723031915e-16
-3.006400752e-16
-3.283932482e-16
-3.555160984e-16
-3.819649694e-16
-4.076985569e-16
-4.326785212e-16
-4.568697236e-16
-4.802403247e-16
-5.027620279e-16
-5.244094184e-16
-5.451601624e-16
-5.649947839e-16
-5.838964838e-16
-6.01851381e-16
-6.188480452e-16
-6.348776522e-16
-6.499334532e-16
-6.640108748e-16
-6.771070002e-16
-6.892204962e-16
-7.003513135e-16
-7.105003969e-16
-7.196694851e-16
-7.278610356e-16
-7.350777322e-16
-7.413225608e-16
-7.465983971e-16
-7.509080684e-16
-7.542540245e-16
-7.566382707e-16
-7.580624359e-16
-3.791408736e-16
-5.561856744e-08
-7.70984719e-08
-2.925982534e-07
-3.565096512e-07
2.932128716e-07
1.587207142e-06
-6.870587902e-07
6.671880737e-07
-3.331738915e-07
-2.841913624e-17
-6.043941954e-17
-9.263707577e-17
-1.23585371e-16
-1.540746381e-16
-1.842181966e-16
-2.139832039e-16
-2.433205046e-16
-2.721772689e-16
-3.005005775e-16
-3.282407187e-16
-3.553513646e-16
-3.817888575e-16
-4.075119113e-16
-4.324820081e-16
-4.566638876e-16
-4.800258973e-16
-5.025395361e-16
-5.241796082e-16
-5.449236916e-16
-5.647522364e-16
-5.836485835e-16
-6.015986707e-16
-6.185911134e-16
-6.346169545e-16
-6.49669577e-16
-6.637442545e-16
-6.768381177e-16
-6.889497323e-16
-7.000790559e-16
-7.102269885e-16
-7.193952606e-16
-7.275862636e-16
-7.348026312e-16
-7.410473223e-16
-7.463231995e-16
-7.506330488e-16
-7.539792744e-16
-7.563639709e-16
-7.577885864e-16
-3.789904556e-16
-3.79766891e-08
-7.048642665e-08
-2.569141873e-07
-2.322082555e-07
5.330061435e-07
1.585461859e-06
-1.081500417e-06
-6.647245461e-07
2.078730095e-08
-2.840048554e-17
-6.036088632e-17
-9.259368985e-17
-1.235290338e-16
-1.540002598e-16
-1.841248333e-16
-2.138738231e-16
-2.431965281e-16
-2.72038609e-16
-3.003473101e-16
-3.28073383e-16
-3.551708478e-16
-3.815960257e-16
-4.073074952e-16
-4.322667118e-16
-4.564384175e-16
-4.797909161e-16
-5.0229578e-16
-5.239277409e-16
-5.446645028e-16
-5.644864479e-16
-5.8337684e-16
-6.013216039e-16
-6.183093691e-16
-6.343311297e-16
-6.493802377e-16
-6.634519111e-16
-6.765432352e-16
-6.886528463e-16
-6.997805214e-16
-7.09927212e-16
-7.190946133e-16
-7.272850105e-16
-7.345010369e-16
-7.407455871e-16
-7.460215541e-16
-7.503316361e-16
-7.536782045e-16
-7.560633662e-16
-7.574885488e-16
-3.788277444e-16
-1.279308344e-08
2.651837646e-09
-1.182904695e-07
-8.848592273e-08
5.76561488e-07
1.087701514e-06
-7.607727148e-07
-1.591527483e-06
2.373776337e-07
-2.839582636e-17
-6.028043308e-17
-9.254186179e-17
-1.234667977e-16
-1.539190239e-16
-1.840240064e-16
-2.137553962e-16
-2.430616689e-16
-2.718876366e-16
-3.001807116e-16
-3.278919008e-16
-3.549753614e-16
-3.813873022e-16
-4.070863097e-16
-4.320336911e-16
-4.561943218e-16
-4.795364886e-16
-5.020318557e-16
-5.236551282e-16
-5.44383894e-16
-5.641986333e-16
-5.830825414e-16
-6.010215565e-16
-6.180042371e-16
-6.340216025e-16
-6.490668534e-16
-6.631353009e-16
-6.762239547e-16
-6.883313432e-16
-6.994573139e-16
-7.096026872e-16
-7.187691146e-16
-7.269588502e-16
-7.341745396e-16
-7.404190204e-16
-7.456950367e-16