/*--------------------------------*- C++ -*----------------------------------*\
  =========                 |
  \\      /  F ield         | OpenFOAM: The Open Source CFD Toolbox
   \\    /   O peration     | Website:  https://openfoam.org
    \\  /    A nd           | Version:  6
     \\/     M anipulation  |
\*---------------------------------------------------------------------------*/
FoamFile
{
    version     2.0;
    format      ascii;
    class       volScalarField;
    location    "0.12";
    object      p_rgh;
}
// * * * * * * * * * * * * * * * * * * * * * * * * * * * * * * * * * * * * * //

dimensions      [1 -1 -2 0 0 0 0];

internalField   nonuniform List<scalar> 
2500
(
0.5339760171
0.4022389085
0.3508939041
0.2870325721
0.2782430168
0.3034228026
0.316624174
0.34517165
27276.45018
27383.24794
27488.86417
27592.66965
27693.83826
27791.63662
27885.44123
27974.74948
28059.18354
28138.48776
28212.52084
28281.24423
28344.70813
28403.03644
28456.41173
28505.06092
28549.24232
28589.23425
28625.32539
28657.80686
28686.96599
28713.0814
28736.41953
28757.23217
28775.75484
28792.20596
28806.78654
28819.68032
28831.05414
28841.05864
28849.82898
28857.48575
28864.13581
28869.87319
28874.77991
28878.92678
28882.37416
28885.17253
28887.3631
28888.97828
28890.042
28890.57002
0.3045441966
0.3183283615
0.2938535862
0.2615605516
0.2569742468
0.2781292464
0.2947109446
0.2997381847
27276.41675
27384.16539
27490.67554
27595.30611
27697.20803
27795.62989
27889.93712
27979.62323
28064.313
28143.7586
28217.83034
28286.50364
28349.84373
28407.98957
28461.13802
28509.52899
28553.43215
28593.13546
28628.93551
28661.12973
28690.01025
28715.85925
28738.94564
28759.52277
28777.82704
28794.07716
28808.47403
28821.20096
28832.42417
28842.29349
28850.94327
28858.49318
28865.04923
28870.70458
28875.54048
28879.62702
28883.02391
28885.78107
28887.93925
28889.53047
28890.57844
28891.0988
0.1324965732
0.2566725097
0.276400848
0.2698786646
0.2619502672
0.2763337677
0.2863980912
0.2781200164
27276.4066
27386.04736
27494.36698
27600.67089
27704.05751
27803.73742
27899.05377
27989.49306
28074.68647
28154.40324
28228.53835
28297.09644
28360.17388
28417.94053
28470.62234
28518.4855
28561.82255
28600.94072
28636.15234
28667.76724
28696.08701
28721.40074
28743.98208
28764.08735
28781.9545
28797.80275
28811.83264
28824.22653
28835.14928
28844.74913
28853.15865
28860.49574
28866.8646
28872.3567
28877.05169
28881.01821
28884.31468
28886.98989
28889.08366
28890.62725
28891.64379
28892.14854
0.006821577836
0.1901513669
0.2438596125
0.2712483637
0.2768427164
0.2852369368
0.2898260674
0.282944703
27276.41744
27388.96421
27500.07448
27608.95252
27714.61321
27816.20802
27913.04701
28004.6084
28090.5363
28170.62938
28244.82336
28313.17001
28375.81507
28432.97669
28484.92578
28531.96867
28574.43247
28612.65326
28646.96666
28677.70071
28705.17069
28729.67554
28751.49553
28770.891
28788.10187
28803.34772
28816.82829
28828.72429
28839.19836
28848.39618
28856.44757
28863.46763
28869.55783
28874.80704
28879.29248
28883.0806
28886.22783
28888.7813
28890.77938
28892.25221
28893.22206
28893.70362
-0.07269387551
0.1306140596
0.2042703429
0.2672176318
0.2899084797
0.2863564542
0.2920330251
0.2888139032
27276.43226
27393.02928
27508.01447
27620.45095
27729.23419
27833.4338
27932.3173
28025.35678
28112.2206
28192.75442
28266.95565
28334.9453
28396.93993
28453.22575
28504.13592
28550.03149
28591.28606
28628.27393
28661.36111
28690.89907
28717.22038
28740.6361
28761.43443
28779.88022
28796.21525
28810.65898
28823.40954
28834.64502
28844.52475
28853.19072
28860.76888
28867.37045
28873.09314
28878.02226
28882.23172
28885.78498
28888.73587
28891.1292
28893.00148
28894.38129
28895.28977
28895.74083
-0.1062520709
0.07446534798
0.1533363842
0.2471652711
0.2852117728
0.2924286541
0.2944633808
0.2951818649
27276.4504
27398.40958
27518.50334
27635.60187
27748.438
27855.9749
27957.4309
28052.28022
28140.23451
28221.21184
28295.29949
28362.71572
28423.77386
28478.85087
28528.36118
28572.73591
28612.40707
28647.79603
28679.30561
28707.31494
28732.17654
28754.215
28773.72683
28790.98117
28806.22094
28819.66442
28831.50691
28841.92253
28851.06595
28859.07413
28866.06785
28872.15325
28877.42313
28881.95822
28885.82824
28889.09287
28891.80256
28893.99929
28895.71716
28896.98284
28897.81602
28898.22967
-0.09967386725
0.02566032665
0.09579353343
0.2129528902
0.2849116443
0.31003395
0.2943034127
0.3058678048
27276.47324
27405.34208
27531.98743
27655.01419
27772.93992
27884.59585
27989.15025
28086.09796
28175.22488
28256.55866
28330.3147
28396.84439
28456.58925
28510.04316
28557.7226
28600.14459
28637.81101
28671.19832
28700.75122
28726.87945
28749.95678
28770.32146
28788.27769
28804.09767
28818.02393
28830.27186
28841.03217
28850.47327
28858.74346
28865.97306
28872.27623
28877.75264
28882.489
28886.56036
28890.03127
28892.95679
28895.38332
28897.34937
28898.88613
28900.018
28900.76293
28901.13273
-0.06981316265
-0.01090674121
0.03956322685
0.1644066661
0.2763357026
0.3182909133
0.2995714981
0.3209045616
27276.51462
27414.1642
27549.08993
27679.5261
27803.71016
27920.3169
28028.47511
28127.73558
28218.00781
28299.48292
28372.55626
28437.75808
28495.696
28547.01046
28592.34214
28632.30957
28667.49489
28698.43589
28725.62239
28749.49578
28770.45061
28788.83734
28804.9658
28819.10888
28831.50625
28842.36795
28851.8777
28860.19595
28867.46262
28873.7995
28879.31243
28884.09315
28888.22094
28891.76403
28894.78079
28897.3208
28899.42567
28901.12984
28902.46113
28903.44122
28904.08608
28904.40618
-0.03326741267
-0.02714420003
-0.005421462381
0.09956409077
0.2317738484
0.3019007414
0.321376954
0.3269015561
27276.58468
27425.35635
27570.68138
27710.28806
27842.05562
27964.48461
28076.69617
28178.36035
28269.5872
28350.80865
28422.66939
28485.93598
28541.42671
28589.96121
28632.32671
28669.25748
28701.424
28729.42891
28753.80762
28775.03164
28793.51352
28809.6125
28823.6403
28835.86681
28846.52526
28855.81701
28863.91575
28870.97126
28877.11261
28882.45094
28887.08191
28891.08767
28894.53868
28897.49512
28900.00817
28902.12103
28903.86984
28905.28431
28906.38842
28907.2008
28907.7351
28908.0003
-0.01832983045
-0.03055245697
-0.03220645762
0.03338741555
0.1540614683
0.2565475193
0.3293146295
0.267049093
27276.65232
27439.6192
27597.98963
27748.88619
27889.73671
28018.86725
28135.46266
28239.42114
28331.17129
28411.49488
28481.37685
28541.8902
28594.11432
28639.08176
28677.7469
28710.97063
28739.51569
28764.04913
28785.14856
28803.31067
28818.96037
28832.45984
28844.11713
28854.19383
28862.91201
28870.46011
28876.99808
28882.66179
28887.56666
28891.81081
28895.47765
28898.63803
28901.35207
28903.67069
28905.63682
28907.28643
28908.64942
28909.75026
28910.60857
28911.23955
28911.65433
28911.86019
-0.01999011614
-0.0256636198
-0.03673762275
-0.009454271437
0.07885227073
0.1829215658
0.2527959243
0.09682372268
27277.3023
27458.05202
27632.76869
27797.52601
27949.13367
28085.78166
28206.86372
28312.68878
28404.18128
28482.62266
28549.45333
28606.13436
28654.05953
28694.50562
28728.6096
28757.36352
28781.62013
28802.10444
28819.42789
28834.10319
28846.55849
28857.15042
28866.17556
28873.88042
28880.46988
28886.11436
28890.95571
28895.11219
28898.68248
28901.74906
28904.38091
28906.63578
28908.56196
28910.19984
28911.58307
28912.73956
28913.69226
28914.45984
28915.05714
28915.49562
28915.78359
28915.92651
-0.02196693191
-0.02199696824
-0.02681096535
-0.0238332327
0.03648408452
0.09999599328
0.07755837018
-0.1305966388
27278.35994
27481.97442
27677.50069
27859.30873
28023.48447
28168.25766
28293.51895
28400.28752
28490.24193
28565.36145
28627.68022
28679.13543
28721.48502
28756.27286
28784.82365
28808.25499
28827.4981
28843.32179
28856.35653
28867.11682
28876.02107
28883.40884
28889.55532
28894.68343
28898.97377
28902.57276
28905.59925
28908.14981
28910.30305
28912.12308
28913.66222
28914.96327
28916.06122
28916.98472
28917.75714
28918.39754
28918.92132
28919.34079
28919.66565
28919.90328
28920.05901
28920.1363
-0.02539429827
-0.02405337126
-0.02126656875
-0.02659744949
0.01585825522
0.02470747092
-0.1260878129
-0.2657343848
27277.31543
27513.2287
27735.93848
27938.71317
28117.22968
28270.24014
28398.66385
28504.69923
28591.13756
28660.90185
28716.77201
28761.24365
28796.47386
28824.27873
28846.15867
28863.33612
28876.79683
28887.32936
28895.56083
28901.98762
28907.00124
28910.90964
28913.95452
28916.32525
28918.17003
28919.6047
28920.71974
28921.58577
28922.25788
28922.77902
28923.18268
28923.49491
28923.73601
28923.92173
28924.06432
28924.17324
28924.25576
28924.31745
28924.36249
28924.39395
28924.41397
28924.42393
-0.03240492714
-0.03197241185
-0.02776297246
-0.02930851276
-0.01668045006
-0.04988212549
-0.2606897165
-0.07904365676
27278.48395
27556.61566
27814.29518
28042.36057
28236.4703
28396.80319
28526.19439
28628.70763
28708.70828
28770.3382
28817.26444
28852.59549
28878.89013
28898.21149
28912.19793
28922.13562
28929.02519
28933.63935
28936.57106
28938.27276
28939.08774
28939.27503
28939.0289
28938.49405
28937.77742
28936.95728
28936.09025
28935.21666
28934.36469
28933.55349
28932.79559
28932.09873
28931.46721
28930.90295
28930.40625
28929.9764
28929.61212
28929.31184
28929.07399
28928.89714
28928.7801
28928.72207
-0.0437103483
-0.04396941078
-0.04255242588
-0.04439091156
-0.05993676337
-0.1271507503
-0.2768205697
0.500684681
27281.38597
27618.97452
27922.23937
28179.94117
28389.47465
28554.30198
28680.60163
28775.23004
28844.65245
28894.4814
28929.35526
28952.98668
28968.28233
28977.48147
28982.28794
28983.98501
28983.53052
28981.63317
28978.81258
28975.4458
28971.80305
28968.07491
28964.39303
28960.84564
28957.48931
28954.35775
28951.46832
28948.82694
28946.43174
28944.27566
28942.3485
28940.63825
28939.13221
28937.81765
28936.68237
28935.71507
28934.90555
28934.24489
28933.72559
28933.34159
28933.08832
28932.96272
-0.05873318664
-0.06034579341
-0.06264071898
-0.07245219661
-0.07734527079
-0.1779526061
-0.1947099867
1.307071892
27289.27713
27713.70025
28075.7046
28365.65989
28587.1717
28750.32528
28866.68231
28946.96301
29000.19531
29033.5847
29052.69297
29061.71745
29063.77421
29061.14678
29055.48957
29047.98784
29039.48031
29030.55164
29021.60155
29012.89598
29004.60481
28996.82957
28989.62366
28983.00714
28976.97742
28971.51707
28966.5993
28962.19204
28958.26064
28954.76993
28951.68549
28948.97459
28946.60675
28944.55411
28942.79159
28941.29702
28940.05117
28939.03766
28938.24298
28937.6564
28937.26995
28937.07831
-0.07647841081
-0.07953766231
-0.08294624217
-0.09724788028
-0.09119858232
-0.2005321439
-0.09693743066
1.962284399
27315.88304
27868.37013
28301.15845
28619.78978
28843.21972
28993.14951
29088.84803
29145.7538
29175.58965
29186.97633
29186.12032
29177.42058
29163.95396
29147.84475
29130.53803
29112.99838
29095.85281
29079.49288
29064.14719
29049.93284
29036.89168
29025.01588
29014.26586
29004.58277
28995.89711
28988.13473
28981.22075
28975.08222
28969.64983
28964.85891
28960.64994
28956.96888
28953.76713
28951.00147
28948.63388
28946.63133
28944.96551
28943.61266
28942.55333
28941.77217
28941.25783
28941.0028
-0.09659577612
-0.1006032505
-0.1060206611
-0.1224282484
-0.1274585876
-0.1778978075
-0.1080711193
2.079697863
27414.70524
28139.70642
28640.7109
28969.10731
29172.78013
29290.22431
29349.82535
29371.6303
29369.44559
29352.62007
29327.39845
29297.89582
29266.7802
29235.7432
29205.8217
29177.61662
29151.44116
29127.42113
29105.56261
29085.79752
29068.01412
29052.07732
29037.84204
29025.16184
29013.89443
29003.9049
28995.06764
28987.26719
28980.39852
28974.36689
28969.08748
28964.48486
28960.49243
28957.05179
28954.11219
28951.62993
28949.56793
28947.89521
28946.58656
28945.62219
28944.98748
28944.67279
-0.1182637541
-0.1222371983
-0.1296981822
-0.1416238773
-0.1593006885
-0.1555661744
-0.2811522349
1.493570782
27745.88876
28631.43665
29152.89677
29443.19532
29588.61983
29645.18416
29648.63022
29621.51908
29577.9582
29526.67096
29472.96526
29419.9894
29369.5316
29322.52887
29279.39099
29240.20681
29204.87535
29173.18893
29144.88554
29119.68138
29097.2908
29077.43807
29059.86394
29044.32897
29030.6147
29018.52368
29007.87862
28998.5213
28990.31109
28983.1236
28976.84918
28971.39163
28966.66693
28962.60209
28959.13416
28956.20933
28953.78212
28951.81476
28950.27658
28949.14362
28948.39817
28948.02861
-0.1403077005
-0.1439988232
-0.1534150802
-0.1626828965
-0.1934368303
-0.1607555084
-0.3410692626
0.4666878107
28616.25263
29483.34002
29896.48031
30062.30895
30093.42131
30053.32843
29978.03486
29887.88483
29794.21464
29703.15151
29617.80947
29539.56967
29468.8311
29405.45183
29349.00812
29298.94543
29254.66541
29215.57452
29181.10998
29150.75237
29124.03034
29100.52092
29079.84743
29061.67615
29045.71253
29031.69729
29019.40272
29008.62915
28999.20185
28990.96816
28983.79496
28977.56653
28972.18256
28967.55648
28963.61407
28960.29213
28957.5375
28955.30616
28953.56246
28952.27858
28951.43405
28951.01539
-0.1615361332
-0.1655526868
-0.1761847316
-0.1867310868
-0.216460086
-0.199216934
-0.3384893868
-0.3899506645
30312.34352
30785.82223
30887.84159
30816.38489
30669.56597
30496.75204
30322.34134
30157.79715
30007.87945
29873.92003
29755.55678
29651.6519
29560.77321
29481.44046
29412.24502
29351.90199
29299.26686
29253.33422
29213.22797
29178.18829
29147.55781
29120.76845
29097.32936
29076.81637
29058.86271
29043.15102
29029.40662
29017.39159
29006.89989
28997.75312
28989.79691
28982.89793
28976.94126
28971.82822
28967.4745
28963.80864
28960.77064
28958.31095
28956.38956
28954.97525
28954.0451
28953.58403
-0.1807871363
-0.1858425095
-0.1972976846
-0.2132061911
-0.2400528587
-0.2751068156
-0.3630392232
-0.9437837431
32778.19819
32458.23898
32053.17054
31646.06754
31271.83097
30941.83746
30656.81515
30413.10047
30205.59482
30029.09666
29878.84765
29750.70865
29641.16954
29547.29172
29466.6294
29397.15058
29337.16585
29285.26763
29240.2796
29201.21531
29167.24458
29137.66618
29111.88575
29089.39789
29069.77157
29052.63821
29037.68192
29024.63152
29013.25387
29003.3484
28994.74255
28987.28796
28980.85729
28975.3416
28970.6481
28966.69829
28963.42649
28960.7785
28958.71062
28957.18882
28956.18812
28955.69212
-0.1967567633
-0.2031633298
-0.2151480864
-0.2376844372
-0.258918486
-0.3437070187
-0.3225977942
-1.281899888
35516.0882
34217.40256
33220.76835
32443.00183
31829.90652
31341.97395
30949.98881
30632.19562
30372.30085
30158.02142
29980.0258
29831.16311
29705.90263
29599.92595
29509.82916
29432.90428
29366.97783
29310.2906
29261.40742
29219.1489
29182.53928
29150.76631
29123.15004
29099.11844
29078.18811
29059.949
29044.05208
29030.1995
29018.1365
29007.64494
28998.53783
28990.65499
28983.85931
28978.03379
28973.07899
28968.91097
28965.45956
28962.66696
28960.48663
28958.88234
28957.82751
28957.30469
-0.2080860562
-0.215608339
-0.2272528191
-0.2542242452
-0.2633638079
-0.3789087983
-0.1981830281
-1.379362698
37834.63632
35680.00796
34169.35054
33075.19147
32262.768
31646.12594
31168.94346
30793.37259
30493.37714
30250.65187
30052.06336
29888.00978
29751.34787
29636.67737
29539.85491
29457.6581
29387.54964
29327.50894
29275.91029
29231.43351
29192.99745
29159.71
29130.83005
29105.7382
29083.91403
29064.91826
29048.37864
29033.97865
29021.44853
29010.55788
29001.10976
28992.93578
28985.89211
28979.85622
28974.72409
28970.40803
28966.83482
28963.9442
28961.68765
28960.02745
28958.93594
28958.39496
-0.2139060534
-0.2219802647
-0.2329574655
-0.2613189167
-0.2595439583
-0.379983938
-0.05789192955
-1.296604128
39152.46901
36507.53503
34700.97163
33425.40112
32499.6999
31810.72609
31286.22765
30878.93576
30557.15772
30299.12829
30089.55413
29917.45651
29774.79593
29655.5767
29555.25216
29470.32162
29398.05238
29336.28437
29283.29082
29237.67722
29198.30705
29164.24641
29134.72231
29109.09075
29086.81211
29067.43202
29050.56625
29035.88871
29023.12189
29012.02915
29002.40843
28994.08716
28986.9181
28980.77586
28975.55411
28971.16326
28967.52852
28964.58838
28962.29335
28960.60492
28959.49489
28958.94473
-0.2139060475
-0.221980247
-0.2329574342
-0.26131887
-0.259543898
-0.3799838682
-0.05789190372
-1.296604646
39152.46885
36507.53499
34700.9716
33425.40108
32499.69985
31810.72604
31286.22759
30878.9357
30557.15766
30299.12823
30089.55408
29917.45647
29774.79589
29655.57668
29555.25214
29470.32162
29398.05238
29336.28438
29283.29084
29237.67725
29198.30708
29164.24646
29134.72237
29109.0908
29086.81217
29067.43209
29050.56633
29035.88879
29023.12198
29012.02924
29002.40852
28994.08726
28986.9182
28980.77597
28975.55422
28971.16337
28967.52864
28964.5885
28962.29346
28960.60504
28959.49501
28958.94485
-0.2080860398
-0.2156082878
-0.227252727
-0.2542241037
-0.2633636144
-0.3789085402
-0.1981828857
-1.379363605
37834.63584
35680.00786
34169.35045
33075.19135
32262.76786
31646.12577
31168.94328
30793.3724
30493.37696
30250.6517
30052.06321
29888.00964
29751.34776
29636.67729
29539.85485
29457.65808
29387.54964
29327.50897
29275.91035
29231.43359
29192.99756
29159.71013
29130.83021
29105.73838
29083.91423
29064.91848
29048.37887
29033.9789
29021.44879
29010.55816
29001.11005
28992.93608
28985.89243
28979.85654
28974.72442
28970.40837
28966.83517
28963.94455
28961.688
28960.02781
28958.9363
28958.39532
-0.1967567403
-0.2031632515
-0.2151479417
-0.2376842069
-0.2589181448
-0.3437065007
-0.3225972542
-1.281899503
35516.08757
34217.40244
33220.76823
32443.00165
31829.90628
31341.97367
30949.98849
30632.19529
30372.30054
30158.02113
29980.02554
29831.16288
29705.90245
29599.92581
29509.82906
29432.90424
29366.97784
29310.29065
29261.40751
29219.14903
29182.53946
29150.76652
29123.15029
29099.11873
29078.18844
29059.94936
29044.05247
29030.19991
29018.13694
29007.6454
28998.53832
28990.65549
28983.85983
28978.03433
28973.07954
28968.91153
28965.46013
28962.66755
28960.48723
28958.88295
28957.82812
28957.3053
-0.1807871124
-0.1858424155
-0.1972975063
-0.2132059024
-0.240052407
-0.2751060828
-0.363038015
-0.9437797634
32778.19793
32458.23898
32053.17043
31646.0673
31271.83062
30941.83703
30656.81468
30413.1
30205.59436
30029.09623
29878.84727
29750.70832
29641.16928
29547.29152
29466.62927
29397.15051
29337.16586
29285.2677
29240.27973
29201.21551
29167.24484
29137.66649
29111.88611
29089.39831
29069.77203
29052.63871
29037.68246
29024.6321
29013.25449
29003.34905
28994.74323
28987.28867
28980.85803
28975.34236
28970.64888
28966.69909
28963.4273
28960.77932
28958.71145
28957.18967
28956.18897
28955.69297
-0.1615361147
-0.1655525893
-0.176184545
-0.1867307937
-0.2164596409
-0.1992162313
-0.3384879246
-0.3899438089
30312.34429
30785.82251
30887.84152
30816.38456
30669.56547
30496.75144
30322.34069
30157.7965
30007.87882
29873.91945
29755.55627
29651.65147
29560.77287
29481.44021
29412.24485
29351.90191
29299.26687
29253.33431
29213.22814
29178.18854
29147.55814
29120.76885
29097.32983
29076.81691
29058.8633
29043.15167
29029.40732
29017.39234
29006.90069
28997.75396
28989.79779
28982.89884
28976.94221
28971.8292
28967.47551
28963.80967
28960.77169
28958.31202
28956.39064
28954.97634
28954.04619
28953.58513
-0.1403076923
-0.1439987275
-0.1534148981
-0.16268264
-0.1934365254
-0.1607551953
-0.3410687224
0.466691647
28616.25433
29483.34049
29896.48018
30062.30845
30093.4206
30053.3276
29978.03398
29887.88397
29794.21382
29703.15076
29617.80882
29539.56913
29468.83067
29405.45152
29349.00791
29298.94534
29254.66543
29215.57463
29181.1102
29150.75268
29124.03074
29100.52142
29079.84801
29061.67681
29045.71326
29031.69809
29019.40358
29008.63008
28999.20284
28990.96919
28983.79604
28977.56766
28972.18372
28967.55769
28963.6153
28960.29339
28957.53879
28955.30746
28953.56378
28952.27991
28951.43539
28951.01674
-0.1182637589
-0.122237096
-0.1296979798
-0.1416236206
-0.1593004923
-0.1555663349
-0.2811530199
1.493570244
27745.88993
28631.4368
29152.89633
29443.19451
29588.6188
29645.18302
29648.62906
29621.51796
29577.95717
29526.67004
29472.96446
29419.98874
29369.53108
29322.52849
29279.39075
29240.2067
29204.87537
29173.18908
29144.88581
29119.68176
29097.29129
29077.43866
29059.86463
29044.32975
29030.61557
29018.52463
29007.87965
28998.5224
28990.31226
28983.12483
28976.85047
28971.39297
28966.66832
28962.60352
28959.13563
28956.21083
28953.78365
28951.81631
28950.27816
28949.1452
28948.39977
28948.03021
-0.09659579741
-0.100603124
-0.1060203756
-0.1224278592
-0.1274581959
-0.1778979315
-0.10807196
2.079692325
27414.70493
28139.70586
28640.70994
28969.10603
29172.77867
29290.22278
29349.82385
29371.62889
29369.44431
29352.61895
29327.39749
29297.89503
29266.77959
29235.74276
29205.82143
29177.6165
29151.4412
29127.42131
29105.56293
29085.79797
29068.0147
29052.07802
29037.84284
29025.16276
29013.89544
29003.90601
28995.06884
28987.26847
28980.39988
28974.36832
28969.08897
28964.48641
28960.49404
28957.05345
28954.11389
28951.63168
28949.56971
28947.89702
28946.58839
28945.62403
28944.98933
28944.67465
-0.07647845873
-0.07953750337
-0.08294581093
-0.09724716745
-0.09119752279
-0.2005312914
-0.09693681093
1.96227761
27315.88204
27868.369
28301.1569
28619.78791
28843.2177
28993.14749
29088.84612
29145.75205
29175.5881
29186.97499
29186.1192
29177.41967
29163.95326
29147.84425
29130.53772
29112.99825
29095.85287
29079.4931
29064.14757
29049.93337
29036.89234
29025.01668
29014.26679
29004.58382
28995.89828
28988.136
28981.22212
28975.08368
28969.65138
28964.86054
28960.65165
28956.97066
28953.76897
28951.00336
28948.63583
28946.63331
28944.96753
28943.61472
28942.55541
28941.77427
28941.25994
28941.00492
-0.05873328504
-0.06034563287
-0.06264015895
-0.07245102425
-0.07734332452
-0.1779504863
-0.1947081478
1.307071067
27289.27674
27713.69884
28075.70236
28365.65725
28587.16898
28750.32268
28866.67993
28946.9609
29000.19348
29033.58315
29052.69169
29061.71643
29063.77343
29061.14623
29055.48924
29047.98772
29039.48038
29030.5519
29021.60199
29012.89658
29004.60558
28996.83049
28989.62472
28983.00833
28976.97874
28971.5185
28966.60085
28962.19369
28958.26239
28954.77177
28951.68741
28948.97659
28946.60882
28944.55624
28942.79377
28941.29926
28940.05345
28939.03997
28938.24532
28937.65876
28937.27232
28937.08069
-0.04371053486
-0.04396934322
-0.04255190528
-0.0443894991
-0.05993441594
-0.1271482563
-0.2768188601
0.5006944621
27281.38711
27618.97264
27922.23602
28179.93742
28389.47102
28554.29869
28680.59874
28775.22755
28844.65034
28894.47964
28929.35382
28952.98555
28968.28148
28977.48088
28982.2876
28983.98491
28983.53063
28981.63349
28978.81309
28975.4465
28971.80392
28968.07595
28964.39422
28960.84697
28957.49079
28954.35936
28951.47005
28948.82879
28946.43369
28944.27771
28942.35064
28940.64048
28939.13451
28937.82002
28936.68481
28935.71756
28934.90808
28934.24747
28933.7282
28933.34422
28933.09096
28932.96537
-0.03240524664
-0.03197259683
-0.02776280666
-0.02930750717
-0.0166787632
-0.04988029315
-0.2606884993
-0.07902510759
27278.48633
27556.61176
27814.28966
28042.35519
28236.46556
28396.79914
28526.19098
28628.70477
28708.70591
28770.33625
28817.26288
28852.59427
28878.88923
28898.21088
28912.19759
28922.13554
28929.02534
28933.63973
28936.57166
28938.27356
28939.08873
28939.2762
28939.03023
28938.49554
28937.77906
28936.95907
28936.09217
28935.21871
28934.36685
28933.55576
28932.79796
28932.10119
28931.46976
28930.90557
28930.40894
28929.97915
28929.61492
28929.31469
28929.07687
28928.90004
28928.78302
28928.725
-0.02539478642
-0.02405401518
-0.02126716558
-0.02659767488
0.01585857007
0.02470857672
-0.1260865473
-0.2657410626
27277.3143
27513.21818
27735.92899
27938.70566
28117.22376
28270.2354
28398.66
28504.69608
28591.13498
28660.89977
28716.77035
28761.24237
28796.47293
28824.27812
28846.15834
28863.33608
28876.79704
28887.32982
28895.56151
28901.98852
28907.00234
28910.91094
28913.956
28916.3269
28918.17185
28919.60667
28920.72185
28921.58802
28922.26025
28922.78152
28923.18528
28923.49761
28923.7388
28923.92461
28924.06727
28924.17625
28924.25883
28924.32057
28924.36564
28924.39713
28924.41717
28924.42714
-0.02196759458
-0.02199829856
-0.02681272234
-0.02383499458
0.0364832319
0.09999683045
0.07756009053
-0.1311068077
27278.28968
27481.94683
27677.48626
27859.29948
28023.47778
28168.25251
28293.51485
28400.28421
28490.23924
28565.35928
28627.67851
28679.13412
28721.48408
28756.27226
28784.82336
28808.25499
28827.49838
28843.32233
28856.35731
28867.11783
28876.0223
28883.41028
28889.55696
28894.68525
28898.97576
28902.57492
28905.60156
28908.15227
28910.30565
28912.1258
28913.66507
28914.96622
28916.06427
28916.98786
28917.76036
28918.40083
28918.92466
28919.34419
28919.66909
28919.90675
28920.0625
28920.1398
-0.01999093764
-0.02566574695
-0.03674055617
-0.009456996038
0.07885103785
0.1829221056
0.2527971189
0.09671081253
27277.28683
27458.03681
27632.75738
27797.51764
27949.12726
28085.77659
28206.85963
28312.68546
28404.17857
28482.62049
28549.45162
28606.13306
28654.05861
28694.50506
28728.60937
28757.3636
28781.62049
28802.10507
28819.42879
28834.10433
28846.55986
28857.15201
28866.17736
28873.88241
28880.47206
28886.11672
28890.95823
28895.11487
28898.6853
28901.75202
28904.384
28906.63898
28908.56527
28910.20325
28911.58656
28912.74312
28913.69589
28914.46352
28915.06087
28915.49938
28915.78737
28915.9303
-0.01833081408
-0.03055510451
-0.03220984627
0.03338474672
0.1540603833
0.2565475709
0.3293147381
0.2670469265
27276.65202
27439.61266
27597.98237
27748.87968
27889.73119
28018.86262
28135.45881
28239.41794
28331.16866
28411.49275
28481.37518
28541.88895
28594.11346
28639.08126
28677.74674
28710.97078
28739.51615
28764.04987
28785.14957
28803.31195
28818.96189
28832.46159
28844.1191
28854.19601
28862.91439
28870.46267
28877.00082
28882.66469
28887.56972
28891.81402
28895.48099
28898.64149
28901.35565
28903.67437
28905.64059
28907.29029
28908.65334
28909.75424
28910.6126
28911.24362
28911.65842
28911.86429
-0.03326852906
-0.02714664262
-0.005424250964
0.09956194831
0.2317727084
0.3019002984
0.3213763095
0.3268998847
27276.58455
27425.35299
27570.67668
27710.28318
27842.05106
27964.48056
28076.69265
28178.35736
28269.58472
28350.80663
28422.66781
28485.93481
28541.42592
28589.96078
28632.32663
28669.25774
28701.42456
28729.42977
28753.80877
28775.03306
28793.5152
28809.61442
28823.64246
28835.86919
28846.52784
28855.81979
28863.91872
28870.9744
28877.11591
28882.4544
28887.0855
28891.0914
28894.54253
28897.49908
28900.01223
28902.12518
28903.87405
28905.2886
28906.39276
28907.20517
28907.7395
28908.00472
-0.06981418231
-0.01090829151
0.03956133568
0.1644045241
0.2763338518
0.3182896992
0.2995703489
0.3209051035
27276.5149
27414.16215
27549.08664
27679.52234
27803.7064
27920.31338
28028.47195
28127.73284
28218.0055
28299.48102
28372.55478
28437.757
28495.6953
28547.01014
28592.34217
28632.30993
28667.49558
28698.43689
28725.62368
28749.49735
28770.45245
28788.83944
28804.96814
28819.11145
28831.50904
28842.37094
28851.88089
28860.19933
28867.46617
28873.80321
28879.31629
28884.09715
28888.22507
28891.76828
28894.78514
28897.32524
28899.4302
28901.13444
28902.46578
28903.44592
28904.0908
28904.41092
-0.0996742638
0.02565959067
0.0957917638
0.2129498937
0.2849086901
0.3100316551
0.2943015486
0.3058623505
27276.4728
27405.34027
27531.98477
27655.01109
27772.93671
27884.59274
27989.14739
28086.09544
28175.22273
28256.5569
28330.31334
28396.84342
28456.58867
28510.04295
28557.72275
28600.14507
28637.81183
28671.19946
28700.75266
28726.88118
28749.95879
28770.32374
28788.28023
28804.10045
28818.02693
28830.27509
28841.03561
28850.47689
28858.74727
28865.97704
28872.28036
28877.75692
28882.49341
28886.5649
28890.03592
28892.96154
28895.38816
28897.35429
28898.89111
28900.02303
28900.76799
28901.13781
-0.1062516732
0.07446475749
0.1533339237
0.2471611491
0.2852078298
0.2924255724
0.29446079
0.2951620588
27276.44808
27398.4075
27518.50089
27635.5991
27748.4351
27855.97206
27957.42826
28052.27787
28140.23251
28221.21021
28295.29825
28362.71487
28423.77339
28478.85078
28528.36145
28572.73653
28612.40803
28647.79732
28679.30722
28707.31685
28732.17874
28754.21747
28773.72957
28790.98416
28806.22417
28819.66788
28831.51058
28841.9264
28851.07002
28859.07838
28866.07227
28872.15782
28877.42784
28881.96306
28885.8332
28889.09793
28891.80772
28894.00454
28895.72247
28896.9882
28897.82142
28898.23509
-0.07269314051
0.1306132309
0.2042674056
0.2672131514
0.2899042784
0.2863531082
0.2920301276
0.2887989405
27276.43065
27393.02755
27508.0122
27620.4483
27729.23142
27833.4311
27932.3148
28025.35456
28112.21873
28192.75292
28266.95453
28334.94456
28396.93957
28453.22578
28504.13632
28550.03225
28591.28718
28628.27538
28661.36289
28690.90116
28717.22277
28740.63878
28761.43739
28779.88344
28796.21872
28810.66269
28823.41347
28834.64916
28844.52909
28853.19525
28860.77358
28867.37532
28873.09816
28878.02741
28882.23699
28885.79038
28888.74136
28891.13479
28893.00714
28894.38701
28895.29553
28895.74661
0.006822264992
0.1901509253
0.2438574168
0.2712447727
0.2768391528
0.2852339045
0.2898232888
0.2829564997
27276.41947
27388.96325
27500.07221
27608.94975
27714.61037
27816.2053
27913.04455
28004.60626
28090.53451
28170.62797
28244.82234
28313.16939
28375.81484
28432.97685
28484.92632
28531.96958
28574.43374
28612.65488
28646.96861
28677.70299
28705.17328
28729.67843
28751.4987
28770.89445
28788.10558
28803.35168
28816.83248
28828.7287
28839.20298
28848.40099
28856.45256
28863.47279
28869.56315
28874.81251
28879.29808
28883.08632
28886.23366
28888.78723
28890.7854
28892.2583
28893.2282
28893.70978
0.1324974143
0.2566734797
0.2764004841
0.2698768987
0.2619479345
0.2763313733
0.2863957129
0.2781341156
27276.40886
27386.04551
27494.3639
27600.66759
27704.05437
27803.73458
27899.05128
27989.49095
28074.68475
28154.40192
28228.53744
28297.09594
28360.17378
28417.94083
28470.62303
28518.48656
28561.82398
28600.94252
28636.15448
28667.76972
28696.08981
28721.40385
28743.98548
28764.09103
28781.95846
28797.80696
28811.8371
28824.23122
28835.15418
28844.75423
28853.16394
28860.50121
28866.87023
28872.36248
28877.05761
28881.02427
28884.32085
28886.99617
28889.09004
28890.63371
28891.65032
28892.1551
0.3045453784
0.318330994
0.2938552317
0.2615604806