/*--------------------------------*- C++ -*----------------------------------*\
  =========                 |
  \\      /  F ield         | OpenFOAM: The Open Source CFD Toolbox
   \\    /   O peration     | Website:  https://openfoam.org
    \\  /    A nd           | Version:  6
     \\/     M anipulation  |
\*---------------------------------------------------------------------------*/
FoamFile
{
    version     2.0;
    format      ascii;
    class       surfaceScalarField;
    location    "0.12";
    object      phi;
}
// * * * * * * * * * * * * * * * * * * * * * * * * * * * * * * * * * * * * * //

dimensions      [0 3 -1 0 0 0 0];

internalField   nonuniform List<scalar> 
4900
(
-5.132906398e-08
-1.035743246e-07
9.669996566e-09
-6.099906059e-08
3.208612264e-08
-2.241612614e-08
3.558451033e-08
-3.498387715e-09
2.994067675e-08
5.643833611e-09
1.683385877e-08
1.310681797e-08
1.181142791e-09
1.565271597e-08
3.249896012e-17
1.181142729e-09
-1.065322445e-20
4.647863355e-24
-1.056146776e-20
-9.175669036e-23
-1.038031714e-20
-1.811531575e-22
-1.011665448e-20
-2.636683522e-22
-9.779658687e-21
-3.370044669e-22
-9.380314093e-21
-3.993561561e-22
-8.930710052e-21
-4.496184568e-22
-8.443322571e-21
-4.874047186e-22
-7.930368477e-21
-5.129741178e-22
-7.403282172e-21
-5.271090771e-22
-6.872336342e-21
-5.309713046e-22
-6.3464064e-21
-5.259580693e-22
-5.832863605e-21
-5.135735201e-22
-5.337573435e-21
-4.953234355e-22
-4.864972728e-21
-4.726364505e-22
-4.418199943e-21
-4.468109377e-22
-3.999256105e-21
-4.189843305e-22
-3.609178331e-21
-3.901205328e-22
-3.248212443e-21
-3.610108355e-22
-2.91597539e-21
-3.322841095e-22
-2.611601769e-21
-3.044227067e-22
-2.333871534e-21
-2.777812642e-22
-2.081318073e-21
-2.526063482e-22
-1.852317206e-21
-2.29055525e-22
-1.645158574e-21
-2.072149728e-22
-1.458101356e-21
-1.871151512e-22
-1.289416454e-21
-1.687443379e-22
-1.137417264e-21
-1.520600372e-22
-1.000481038e-21
-1.369983919e-22
-8.77062635e-22
-1.234817969e-22
-7.657022169e-22
-1.11424948e-22
-6.650282311e-22
-1.007395599e-22
-5.737567757e-22
-9.133798184e-23
-4.906882482e-22
-8.313591477e-23
-4.147019924e-22
-7.605441269e-23
-3.447495028e-22
-7.002132511e-23
-2.798466102e-22
-6.497231629e-23
-2.190649481e-22
-6.085158368e-23
-1.615228647e-22
-5.761241314e-23
-1.063756952e-22
-5.521781794e-23
-5.280457614e-23
-5.364199712e-23
-5.287559465e-23
-1.003325478e-07
-1.488039029e-07
-4.684778508e-08
-1.144838234e-07
-1.044485227e-08
-5.881905896e-08
3.435185146e-09
-1.737842516e-08
5.783423062e-09
3.29559568e-09
3.128611732e-09
1.576162932e-08
-7.768887091e-10
1.95582165e-08
-9.371572528e-18
4.042542034e-10
-1.074728643e-20
1.574633712e-24
-1.065083469e-20
-1.882134874e-22
-1.046282081e-20
-3.691776412e-22
-1.018998157e-20
-5.365236496e-22
-9.842004848e-21
-6.850024477e-22
-9.430574454e-21
-8.10812906e-22
-8.968497601e-21
-9.11726703e-22
-8.468895872e-21
-9.870428145e-22
-7.944509235e-21
-1.037402024e-21
-7.407151376e-21
-1.064513026e-21
-6.867330618e-21
-1.070842884e-21
-6.334029371e-21
-1.059314771e-21
-5.814620656e-21
-1.033042217e-21
-5.314892935e-21
-9.951155532e-22
-4.839152896e-21
-9.484451813e-22
-4.39037815e-21
-8.956585432e-22
-3.970396259e-21
-8.39043116e-22
-3.580071774e-21
-7.805258112e-22
-3.219488125e-21
-7.21679033e-22
-2.888115757e-21
-6.637446347e-22
-2.584961556e-21
-6.07668525e-22
-2.308697402e-21
-5.541403399e-22
-2.057767678e-21
-5.036341443e-22
-1.830476804e-21
-4.564474613e-22
-1.625058691e-21
-4.127369773e-22
-1.439730328e-21
-3.725500751e-22
-1.272731832e-21
-3.358519002e-22
-1.122355228e-21
-3.025480489e-22
-9.869640147e-22
-2.72503191e-22
-8.65005343e-22
-2.455560676e-22
-7.550163891e-22
-2.2153135e-22
-6.556262303e-22
-2.00248852e-22
-5.655543128e-22
-1.815305541e-22
-4.836063844e-22
-1.652058563e-22
-4.086685823e-22
-1.511154236e-22
-3.397002143e-22
-1.391139357e-22
-2.757256436e-22
-1.290720023e-22
-2.158255923e-22
-1.208774625e-22
-1.591281404e-22
-1.144362459e-22
-1.047998276e-22
-1.09672908e-22
-5.203813656e-23
-1.065307101e-22
-1.049698021e-22
-1.260433333e-07
-1.664003492e-07
-8.111153469e-08
-1.59415622e-07
-3.597457488e-08
-1.039560187e-07
-1.147146349e-08
-4.188153653e-08
-7.215466148e-09
-9.604016761e-10
-4.615311242e-09
1.316147439e-08
-9.656116217e-10
1.590851685e-08
-2.992397996e-17
-5.613573399e-10
-1.093525143e-20
-2.745233449e-24
-1.083175677e-20
-2.917122955e-22
-1.063014056e-20
-5.708026795e-22
-1.033844138e-20
-8.282363874e-22
-9.967804168e-21
-1.055657721e-21
-9.531484743e-21
-1.24715484e-21
-9.04381691e-21
-1.39942144e-21
-8.519263616e-21
-1.511627351e-21
-7.971632563e-21
-1.585068598e-21
-7.41349584e-21
-1.622689477e-21
-6.855818065e-21
-1.628564519e-21
-6.307772262e-21
-1.607408479e-21
-5.77670854e-21
-1.5641578e-21
-5.268235698e-21
-1.503644113e-21
-4.786377694e-21
-1.430362655e-21
-4.333772357e-21
-1.348326993e-21
-3.911886817e-21
-1.260995297e-21
-3.521231206e-21
-1.171251471e-21
-3.161558457e-21
-1.081425115e-21
-2.832043097e-21
-9.933364858e-22
-2.531435742e-21
-9.083553977e-22
-2.258192696e-21
-8.274657974e-22
-2.01058178e-21
-7.513302293e-22
-1.786766558e-21
-6.803504705e-22
-1.584871616e-21
-6.147221865e-22
-1.403031683e-21
-5.544826151e-22
-1.239427305e-21
-4.995510808e-22
-1.092309565e-21
-4.497626464e-22
-9.600160156e-22
-4.048955095e-22
-8.409797254e-22
-3.646928949e-22
-7.337330019e-22
-3.288802358e-22
-6.369070801e-22
-2.971784185e-22
-5.492288189e-22
-2.693137997e-22
-4.695152257e-22
-2.450256314e-22
-3.96666448e-22
-2.24071439e-22
-3.296577205e-22
-2.062308156e-22
-2.675306337e-22
-1.913080155e-22
-2.093839987e-22
-1.791336577e-22
-1.54364519e-22
-1.695657801e-22
-1.016574304e-22
-1.624904058e-22
-5.047708924e-23
-1.578216734e-22
-1.555015188e-22
-1.348940209e-07
-1.61846508e-07
-1.082485517e-07
-1.860610912e-07
-6.254073721e-08
-1.496638332e-07
-2.219565549e-08
-8.222661822e-08
-7.780725259e-09
-1.537533191e-08
-5.18648939e-09
1.05672385e-08
-1.635139775e-10
1.088554143e-08
-4.567201652e-17
-7.248712275e-10
-1.122562947e-20
-4.396019004e-24
-1.111079743e-20
-4.065484169e-22
-1.088753252e-20
-7.940762661e-22
-1.056583316e-20
-1.149949062e-21
-1.015928476e-20
-1.462223889e-21
-9.683747184e-21
-1.72271456e-21
-9.156029288e-21
-1.927165815e-21
-8.592719568e-21
-2.07496783e-21
-8.009273797e-21
-2.168549346e-21
-7.41939444e-21
-2.212607961e-21
-6.834686692e-21
-2.213315468e-21
-6.26454573e-21
-2.177596632e-21
-5.71621732e-21
-2.112537302e-21
-5.194974302e-21
-2.024942025e-21
-4.704359318e-21
-1.921036234e-21
-4.246455077e-21
-1.806293421e-21
-3.822154638e-21
-1.685361404e-21
-3.431413951e-21
-1.562061186e-21
-3.073476677e-21
-1.439434657e-21
-2.74706693e-21
-1.319821616e-21
-2.450549456e-21
-1.204951239e-21
-2.182059138e-21
-1.096037337e-21
-1.939603e-21
-9.938703078e-22
-1.721138461e-21
-8.98901534e-22
-1.524631643e-21
-8.113179755e-22
-1.348099325e-21
-7.311062106e-22
-1.189637763e-21
-6.581060873e-22
-1.047441145e-21
-5.920547349e-22
-9.198120288e-22
-5.326219828e-22
-8.051656715e-22
-4.794383536e-22
-7.02029817e-22
-4.321167951e-22
-6.09041158e-22
-3.902692449e-22
-5.249394386e-22
-3.535190086e-22
-4.485599316e-22
-3.215098096e-22
-3.788248462e-22
-2.939122376e-22
-3.147340738e-22
-2.704282039e-22
-2.553555663e-22
-2.507939028e-22
-1.998155514e-22
-2.347816778e-22
-1.472887154e-22
-2.222011085e-22
-9.698840785e-23
-2.128995547e-22
-4.815678906e-23
-2.067623432e-22
-2.0371281e-22
-1.284502701e-07
-1.399720603e-07
-1.241449218e-07
-1.903664395e-07
-8.880879069e-08
-1.849999643e-07
-4.109905083e-08
-1.299363581e-07
-8.296732355e-09
-4.81776504e-08
-2.765667617e-09
5.036173723e-09
-2.035523237e-10
8.323426113e-09
-4.31444702e-17
-9.284235024e-10
-1.162979146e-20
-5.838022447e-24
-1.149825626e-20
-5.380876851e-22
-1.124334565e-20
-1.048995545e-21
-1.087806707e-20
-1.515240942e-21
-1.041975415e-20
-1.920554555e-21
-9.888195374e-21
-2.254295456e-21
-9.303843423e-21
-2.511544215e-21
-8.686324545e-21
-2.692517433e-21
-8.053363245e-21
-2.801545586e-21
-7.420136547e-21
-2.845873744e-21
-6.799003266e-21
-2.834491903e-21
-6.199520408e-21
-2.777126631e-21
-5.628653158e-21
-2.683455588e-21
-5.09109587e-21
-2.562554149e-21
-4.589639739e-21
-2.422550897e-21
-4.125542162e-21
-2.270453119e-21
-3.698869629e-21
-2.112099534e-21
-3.30879912e-21
-1.95220065e-21
-2.953872282e-21
-1.794433686e-21
-2.632202624e-21
-1.641566575e-21
-2.341639506e-21
-1.495592639e-21
-2.079894368e-21
-1.357863609e-21
-1.844635163e-21
-1.229213363e-21
-1.633554837e-21
-1.11006829e-21
-1.444419078e-21
-1.000542608e-21
-1.275097888e-21
-9.005185783e-22
-1.123584761e-21
-8.097125571e-22
-9.880065469e-22
-7.277283148e-22
-8.666264653e-22
-6.540993139e-22
-7.578421735e-22
-5.883216372e-22
-6.601803839e-22
-5.298791779e-22
-5.722891409e-22
-4.782625418e-22
-4.929285931e-22
-4.329829306e-22
-4.209608695e-22
-3.935820874e-22
-3.553394938e-22
-3.596392079e-22
-2.950986347e-22
-3.307755589e-22
-2.393423895e-22
-3.066574062e-22
-1.872342191e-22
-2.869977304e-22
-1.379865884e-22
-2.715571071e-22
-9.085081318e-23
-2.60144045e-22
-4.510706484e-23
-2.526150155e-22
-2.488743768e-22
-1.08472462e-07
-1.062789919e-07
-1.264097975e-07
-1.724291039e-07
-1.093230918e-07
-2.0208667e-07
-6.538575569e-08
-1.738736942e-07
-1.809768273e-08
-9.546572339e-08
3.195060718e-10
-1.338101513e-08
-4.982440857e-10
9.141176261e-09
-2.080312918e-17
-1.426667578e-09
-1.216430849e-20
-8.496748107e-24
-1.200906745e-20
-6.933328001e-22
-1.170950976e-20
-1.3485619e-21
-1.128332749e-20
-1.941436515e-21
-1.075347044e-20
-2.450429357e-21
-1.014544519e-20
-2.862342837e-21
-9.484838257e-21
-3.172177605e-21
-8.795388885e-21
-3.381997539e-21
-8.097736315e-21
-3.499233105e-21
-7.408803308e-21
-3.534845847e-21
-6.741686357e-21
-3.50165202e-21
-6.105894722e-21
-3.412965418e-21
-5.507792348e-21
-3.281609012e-21
-4.951127645e-21
-3.119273702e-21
-4.437571149e-21
-2.93616594e-21
-3.967212127e-21
-2.740874276e-21
-3.538989129e-21
-2.540388144e-21
-3.151045997e-21
-2.340212752e-21
-2.801015139e-21
-2.144536751e-21
-2.486235448e-21
-1.956421584e-21
-2.203914647e-21
-1.77799174e-21
-1.951246256e-21
-1.610613151e-21
-1.725490664e-21
-1.455052821e-21
-1.524028568e-21
-1.311616833e-21
-1.344393633e-21
-1.180266433e-21
-1.184289888e-21
-1.060713518e-21
-1.041598187e-21
-9.524976164e-22
-9.143750276e-22
-8.550468572e-22
-8.008462091e-22
-7.677253984e-22
-6.993971682e-22
-6.898696864e-22
-6.085613047e-22
-6.208156509e-22
-5.270072391e-22
-5.599186772e-22
-4.535256465e-22
-5.065679131e-22
-3.870160968e-22
-4.601962067e-22
-3.264741765e-22
-4.202867377e-22
-2.709790473e-22
-3.863771984e-22
-2.196815169e-22
-3.580622087e-22
-1.717926385e-22
-3.349945041e-22
-1.265728088e-22
-3.168853169e-22
-8.332130561e-23
-3.035042749e-22
-4.136618742e-23
-2.946790687e-22
-2.902950786e-22
-7.836805721e-08
-6.755927777e-08
-1.145352856e-07
-1.362618755e-07
-1.192280013e-07
-1.973939543e-07
-8.801312146e-08
-2.05088574e-07
-3.822240719e-08
-1.452564377e-07
-3.668403955e-09
-4.79350184e-08
-8.429804981e-10
6.315752805e-09
6.369687763e-19
-2.269648058e-09
-1.285316207e-20
-1.401769779e-23
-1.266416912e-20
-8.823298331e-22
-1.230227684e-20
-1.710462856e-21
-1.179225436e-20
-2.451472301e-21
-1.11653589e-20
-3.077342575e-21
-1.045529023e-20
-3.572433647e-21
-9.694695285e-21
-3.932799019e-21
-8.912679202e-21
-4.164044369e-21
-8.133413089e-21
-4.278534183e-21
-7.375676009e-21
-4.29262204e-21
-6.653063838e-21
-4.224307375e-21
-5.974596748e-21
-4.09147968e-21
-5.345508056e-21
-3.910748774e-21
-4.768062817e-21
-3.696773811e-21
-4.242314427e-21
-3.461972899e-21
-3.76675352e-21
-3.216497343e-21
-3.338834681e-21
-2.968372619e-21
-2.955385304e-21
-2.723731123e-21
-2.612910597e-21
-2.48708369e-21
-2.307812437e-21
-2.261595087e-21
-2.036539895e-21
-2.049342608e-21
-1.795687459e-21
-1.851546764e-21
-1.582054484e-21
-1.668769691e-21
-1.392676731e-21
-1.501081062e-21
-1.224838417e-21
-1.348193666e-21
-1.076071129e-21
-1.209572029e-21
-9.441442503e-22
-1.084517882e-21
-8.270502526e-22
-9.722362667e-22
-7.22987178e-22
-8.718857681e-22
-6.303399107e-22
-7.826159911e-22
-5.476612777e-22
-7.035949224e-22
-4.736536401e-22
-6.340284138e-22
-4.071513567e-22
-5.731736153e-22
-3.471043168e-22
-5.203478449e-22
-2.925626108e-22
-4.749340818e-22
-2.426623216e-22
-4.36384026e-22
-1.966123688e-22
-4.042194613e-22
-1.536822996e-22
-3.780324957e-22
-1.131909054e-22
-3.574851178e-22
-7.449552643e-23
-3.423084067e-22
-3.69819113e-23
-3.323016445e-22
-3.273315185e-22
-4.34748342e-08
-3.17757371e-08
-9.004849681e-08
-8.968821283e-08
-1.162781153e-07
-1.711643357e-07
-1.039517621e-07
-2.174149273e-07
-5.907700129e-08
-1.901311985e-07
-1.26313927e-08
-9.438062702e-08
-9.341060778e-10
-5.381533829e-09
1.809262375e-18
-3.203754081e-09
-1.372917445e-20
-2.149178681e-23
-1.349212129e-20
-1.119387075e-21
-1.30431463e-20
-2.159446518e-21
-1.241804643e-20
-3.076585488e-21
-1.166043019e-20
-3.834976587e-21
-1.081568355e-20
-4.417202434e-21
-9.926002369e-21
-4.822506682e-21
-9.027250704e-21
-5.062826795e-21
-8.147590876e-21
-5.15822899e-21
-7.30745074e-21
-5.132801304e-21
-6.520319155e-21
-5.011482161e-21
-5.793939113e-21
-4.817906913e-21
-5.131595169e-21
-4.573143807e-21
-4.533312654e-21
-4.295111219e-21
-3.996878996e-21
-3.998465149e-21
-3.518659458e-21
-3.694779063e-21
-3.094215742e-21
-3.392881995e-21
-2.718753698e-21
-3.099262187e-21
-2.387432384e-21
-2.818477263e-21
-2.095566065e-21
-2.553536776e-21
-1.838746866e-21
-2.306240161e-21
-1.612910738e-21
-2.077464097e-21
-1.414364422e-21
-1.867399929e-21
-1.23978666e-21
-1.675745328e-21
-1.086213291e-21
-1.501855983e-21
-9.510130096e-22
-1.344863563e-21
-8.318584294e-22
-1.203765881e-21
-7.266955037e-22
-1.077494635e-21
-6.337132425e-22
-9.649653552e-22
-5.513148725e-22
-8.651134293e-22
-4.780910558e-22
-7.769194087e-22
-4.127954291e-22
-6.994261703e-22
-3.54322502e-22
-6.31749992e-22
-3.016878129e-22
-5.73087163e-22
-2.540101644e-22
-5.227173989e-22
-2.104957179e-22
-4.800050412e-22
-1.704237134e-22
-4.443987956e-22
-1.331335775e-22
-4.154305836e-22
-9.801319087e-23
-3.927139403e-22
-6.448809784e-23
-3.759422812e-22
-3.201145287e-23
-3.648872786e-22
-3.593975149e-22
-1.076286854e-08
-7.94696648e-09
-5.703072035e-08
-4.342036098e-08
-1.001534397e-07
-1.280416163e-07
-1.097483575e-07
-2.078200094e-07
-7.705342354e-08
-2.228261326e-07
-2.503016717e-08
-1.464038834e-07
1.037897634e-11
-3.042207999e-08
-1.39726555e-17
-3.19337503e-09
-1.483907236e-20
-2.709636602e-23
-1.453190777e-20
-1.426555751e-21
-1.396010619e-20
-2.731256779e-21
-1.317635042e-20
-3.860354582e-21
-1.224265215e-20
-4.768692632e-21
-1.122104735e-20
-5.438829391e-21
-1.016642268e-20
-5.877157846e-21
-9.122773227e-21
-6.106507024e-21
-8.122287796e-21
-6.158749414e-21
-7.186249714e-21
-6.068878532e-21
-6.32684921e-21
-5.870925884e-21
-5.549265576e-21
-5.595537757e-21
-4.85363585e-21
-5.268824644e-21
-4.236724446e-21
-4.912077536e-21
-3.693237056e-21
-4.542011153e-21
-3.216794834e-21
-4.171283491e-21
-2.800618728e-21
-3.809123786e-21
-2.437983827e-21
-3.461966133e-21
-2.1225009e-21
-3.134032475e-21
-1.848273838e-21
-2.827839236e-21
-1.609971763e-21
-2.544620618e-21
-1.402845064e-21
-2.284672031e-21
-1.222706603e-21
-2.047622342e-21
-1.065892977e-21
-1.832645488e-21
-9.292158629e-22
-1.638622076e-21
-8.09909988e-22
-1.464260722e-21
-7.055817635e-22
-1.308187554e-21
-6.141609029e-22
-1.169010969e-21
-5.338562209e-22
-1.045367394e-21
-4.631160676e-22
-9.359526824e-22
-4.005934e-22
-8.395427774e-22
-3.451152332e-22
-7.550064986e-22
-2.956560724e-22
-6.81312634e-22
-2.513148712e-22
-6.175330247e-22
-2.112950508e-22
-5.628429193e-22
-1.748871324e-22
-5.165195593e-22
-1.414535696e-22
-4.779397189e-22
-1.104154015e-22
-4.465767342e-22
-8.124039038e-23
-4.219974174e-22
-5.343233826e-23
-4.038591447e-22
-2.652131196e-23
-3.919073236e-22
-3.859733857e-22
1.013161396e-08
5.508986504e-10
-2.284047888e-08
-1.044826809e-08
-7.35743158e-08
-7.730777941e-08
-1.042115587e-07
-1.771827665e-07
-8.993120645e-08
-2.371064849e-07
-4.004632464e-08
-1.962887652e-07
7.518690721e-12
-7.047592331e-08
-3.374579262e-17
-3.185856261e-09
-1.625327847e-20
-9.782423704e-23
-1.583623071e-20
-1.843607594e-21
-1.508897833e-20
-3.478517842e-21
-1.408460118e-20
-4.864745058e-21
-1.291282067e-20
-5.940490927e-21
-1.165948973e-20
-6.692182503e-21
-1.039593103e-20
-7.140743053e-21
-9.175190437e-21
-7.327278403e-21
-8.032586968e-21
-7.301387892e-21
-6.988450232e-21
-7.113054428e-21
-6.051591597e-21
-6.807827756e-21
-5.222658901e-21
-6.424517682e-21
-4.496972311e-21
-5.994562364e-21
-3.866721355e-21
-5.542383427e-21
-3.322555547e-21
-5.086235598e-21
-2.854667308e-21
-4.63923396e-21
-2.453482193e-21
-4.210374611e-21
-2.110062759e-21
-3.805454639e-21
-1.816313841e-21
-3.427853704e-21
-1.565056704e-21
-3.079171798e-21
-1.350021326e-21
-2.759734405e-21
-1.16579125e-21
-2.46898337e-21
-1.007724156e-21
-2.205773417e-21
-8.718631127e-22
-1.968593096e-21
-7.548476424e-22
-1.755726555e-21
-6.538298648e-22
-1.565369814e-21
-5.663983629e-22
-1.395712536e-21
-4.905108095e-22
-1.244994027e-21
-4.244353904e-22
-1.111540202e-21
-3.667005081e-22
-9.937866961e-22
-3.160519664e-22
-8.90292052e-22
-2.714167288e-22
-7.997439296e-22
-2.318723402e-22
-7.209605355e-22
-1.966211528e-22
-6.528889044e-22
-1.649685753e-22
-5.946012283e-22
-1.363046592e-22
-5.452901066e-22
-1.100884193e-22
-5.042633506e-22
-8.583437192e-23
-4.709387951e-22
-6.310084493e-23
-4.448394412e-22
-4.147967443e-23
-4.255891571e-22
-2.058695444e-23
-4.129090926e-22
-4.066149143e-22
1.920115713e-08
1.538563605e-09
4.356725519e-09
4.396163608e-09
-4.170648831e-08
-3.124456559e-08
-8.869414173e-08
-1.301951132e-07
-9.662429124e-08
-2.291763354e-07
-5.657557444e-08
-2.36337482e-07
-4.751098582e-09
-1.223003991e-07
-4.716957077e-17
-7.936954739e-09
-1.801957946e-20
-1.724491193e-22
-1.747049679e-20
-2.39269435e-21
-1.647489642e-20
-4.474126907e-21
-1.516027886e-20
-6.179375947e-21
-1.366461647e-20
-7.436171109e-21
-1.210825545e-20
-8.248565693e-21
-1.05827141e-20
-8.666310921e-21
-9.149549656e-21
-8.76047365e-21
-7.84448114e-21
-8.606491432e-21
-6.683417548e-21
-8.274157197e-21
-5.668438689e-21
-7.822849868e-21
-4.792825686e-21
-7.300177932e-21
-4.044884655e-21
-6.742554545e-21
-3.410639114e-21
-6.176683924e-21
-2.875598905e-21
-5.621334465e-21
-2.425836959e-21
-5.08905816e-21
-2.048579133e-21
-4.587698171e-21
-1.732469837e-21
-4.121633031e-21
-1.467633572e-21
-3.692762306e-21
-1.245616528e-21
-3.301264295e-21
-1.059264572e-21
-2.946164797e-21
-9.025737465e-22
-2.625755487e-21
-7.705352607e-22
-2.337895914e-21
-6.589875566e-22
-2.080227394e-21
-5.644818528e-22
-1.850321298e-21
-4.841637863e-22
-1.645779225e-21
-4.156714865e-22
-1.464298347e-21
-3.570491646e-22
-1.303711885e-21
-3.066746786e-22
-1.162012109e-21
-2.631993039e-22
-1.037361234e-21
-2.254979364e-22
-9.280941841e-22
-1.926280709e-22
-8.327160202e-22
-1.63796071e-22
-7.498960803e-22
-1.383294404e-22
-6.784602591e-22
-1.156539934e-22
-6.173824385e-22
-9.527499293e-23
-5.657757698e-22
-7.676147919e-23
-5.228842875e-22
-5.973313774e-23
-4.880751813e-22
-4.384916682e-23
-4.6083194e-22
-2.879868837e-23
-4.407485083e-22
-1.429231772e-23
-4.275245428e-22
-4.209618215e-22
2.254878439e-08
1.376937258e-09
1.964738148e-08
7.297566571e-09
-1.09299406e-08
-6.672435135e-10
-6.606326818e-08
-7.506178563e-08
-9.7154789e-08
-1.980848146e-07
-7.363353514e-08
-2.598587359e-07
-1.609763755e-08
-1.798362966e-07
-3.60564985e-17
-2.403459214e-08
-2.028488445e-20
-4.174681877e-23
-1.955096313e-20
-3.126619757e-21
-1.817978286e-20
-5.845315872e-21
-1.641709343e-20
-7.942078711e-21
-1.447725909e-20
-9.376023241e-21
-1.252635548e-20
-1.019949149e-20
-1.067725367e-20
-1.051543926e-20
-8.995916195e-21
-1.044184193e-20
-7.512443695e-21
-1.008999897e-20
-6.232348223e-21
-9.554291861e-21
-5.145948817e-21
-8.909292545e-21
-4.235335837e-21
-8.210838177e-21
-3.479107901e-21
-7.498833651e-21
-2.855352442e-21
-6.800494359e-21
-2.34336184e-21
-6.133383747e-21
-1.924498883e-21
-5.507983393e-21
-1.582523509e-21
-4.929739302e-21
-1.303600019e-21
-4.400625643e-21
-1.076130702e-21
-3.920303986e-21
-8.905084984e-22
-3.486961977e-21
-7.388445676e-22
-3.097907193e-21
-6.147023866e-22
-2.749978986e-21
-5.12854603e-22
-2.439827736e-21
-4.290694734e-22
-2.164099146e-21
-3.599282697e-22
-1.91955157e-21
-3.026720767e-22
-1.703126793e-21
-2.550749891e-22
-1.511988975e-21
-2.153402011e-22
-1.34354224e-21
-1.820154804e-22
-1.19543428e-21
-1.539247809e-22
-1.065551128e-21
-1.301131205e-22
-9.520066404e-22
-1.098022615e-22
-8.531291357e-22
-9.235512008e-23
-7.67446798e-22
-7.724718639e-23
-6.936729482e-22
-6.404354547e-23
-6.306918741e-22
-5.238034709e-23
-5.775456623e-22
-4.194979077e-23
-5.334222982e-22
-3.24878665e-23
-4.976451813e-22
-2.376423368e-23
-4.696641314e-22
-1.557373194e-23
-4.490479134e-22
-7.729103917e-24
-4.354782809e-22
-4.2874553e-22
2.579340664e-08
1.849944259e-09
2.603275537e-08
7.05821785e-09
1.263906387e-08
1.272644799e-08
-3.865256776e-08
-2.377015401e-08
-9.071894146e-08
-1.460184409e-07
-9.003219129e-08
-2.60545486e-07
-3.397936151e-08
-2.358891263e-07
1.065228634e-17
-5.801395349e-08
-2.348285217e-20
-4.079159138e-22
-2.226908324e-20
-4.340392772e-21
-2.027634151e-20
-7.838066298e-21
-1.78512985e-20
-1.036713506e-20
-1.530124106e-20
-1.192609848e-20
-1.284289242e-20
-1.265786233e-20
-1.060421243e-20
-1.275414578e-20
-8.644544953e-21
-1.240154024e-20
-6.977109391e-21
-1.175746958e-20
-5.587628104e-21
-1.094381235e-20
-4.447694015e-21
-1.004926992e-20
-3.523467438e-21
-9.135112037e-21
-2.780856475e-21
-8.241495801e-21
-2.18829428e-21
-7.39311155e-21
-1.717988751e-21
-6.603747978e-21
-1.346264693e-21
-5.879769749e-21
-1.053408181e-21
-5.222661594e-21
-8.232693184e-22
-4.63083365e-21
-6.427752443e-22
-4.100870448e-21
-5.014379223e-22
-3.628374802e-21
-3.90899622e-22
-3.208523984e-21
-3.045343716e-22
-2.836425583e-21
-2.371098099e-22
-2.507336364e-21
-1.845066111e-22
-2.216788995e-21
-1.434893172e-22
-1.960657961e-21
-1.115212825e-22
-1.735186232e-21
-8.661649497e-23
-1.536987333e-21
-6.722167355e-23
-1.363032658e-21
-5.212289868e-23
-1.210630536e-21
-4.037193676e-23
-1.077401314e-21
-3.122825802e-23
-9.612511456e-22
-2.41134915e-23
-8.603461894e-22
-1.857569263e-23
-7.730882039e-22
-1.426132344e-23
-6.980921037e-22
-1.089327425e-23
-6.341657486e-22
-8.25360048e-24
-5.802920608e-22
-6.169923347e-24
-5.356134602e-22
-4.504660801e-24
-4.994185499e-22
-3.146424619e-24
-4.711309565e-22
-2.003051116e-24
-4.503002202e-22
-9.95832487e-25
-4.365946394e-22
-4.297959816e-22
3.023773087e-08
2.459554397e-09
3.000854802e-08
7.287400682e-09
2.728533474e-08
1.544966128e-08
-8.173950653e-09
1.168913139e-08
-7.439188552e-08
-7.980050598e-08
-1.019827049e-07
-2.329546665e-07
-5.623358776e-08
-2.816382434e-07
3.964114193e-17
-1.142475412e-07
-2.766451524e-20
-8.203383321e-22
-2.576569667e-20
-6.23921543e-21
-2.28054001e-20
-1.079837157e-20
-1.941097376e-20
-1.376157475e-20
-1.603396185e-20
-1.53031282e-20
-1.294010797e-20
-1.57517384e-20
-1.025239365e-20
-1.544188664e-20
-8.001083612e-21
-1.465288111e-20
-6.163895722e-21
-1.359469253e-20
-4.69339212e-21
-1.241435518e-20
-3.533737022e-21
-1.120896832e-20
-2.629974748e-21
-1.003892161e-20
-1.932541246e-21
-8.938980509e-21
-1.398962593e-21
-7.926745218e-21
-9.940179926e-22
-7.008751299e-21
-6.891486242e-22
-6.184701436e-21
-4.615631858e-22
-5.450312835e-21
-2.932841497e-22
-4.799181854e-21
-1.702555002e-22
-4.223971508e-21
-8.156265321e-23
-3.717143178e-21
-1.877751334e-23
-3.27138764e-21
2.457717684e-23
-2.879861645e-21
5.345818154e-23
-2.536301462e-21
7.164320411e-23
-2.235060695e-21
8.199934071e-23
-1.971103222e-21
8.669275611e-23
-1.739971079e-21
8.735163632e-23
-1.537739812e-21
8.51923444e-23
-1.360968991e-21
8.11167913e-23
-1.206652494e-21
7.578739948e-23
-1.072171176e-21
6.968468818e-23
-9.552492901e-22
6.315141846e-23
-8.539152364e-22
5.642636743e-23
-7.664667894e-22
4.967011628e-23
-6.914406684e-22
4.298470083e-23
-6.275861881e-22
3.642855665e-23
-5.73842671e-22
3.002786839e-23
-5.293202863e-22
2.378518465e-23
-4.932840017e-22
1.768596988e-23
-4.651403598e-22
1.170362071e-23
-4.444268336e-22
5.803366547e-24
-4.308035541e-22
-4.240472481e-22
3.551060856e-08
2.7650957e-09
3.452718021e-08
8.270829024e-09
3.519605978e-08
1.478078173e-08
2.094936457e-08
2.593582663e-08
-4.428404116e-08
-1.456710017e-08
-1.023181108e-07
-1.749205968e-07
-7.819711011e-08
-3.05759244e-07
8.246712774e-18
-1.924446514e-07
-3.356439807e-20
-1.666634609e-21
-3.032418288e-20
-9.479434705e-21
-2.57694689e-20
-1.535309425e-20
-2.095416643e-20
-1.857689057e-20
-1.648424243e-20
-1.977307002e-20
-1.263165205e-20
-1.960435099e-20
-9.464437901e-21
-1.860912734e-20
-6.943630379e-21
-1.717371948e-20
-4.984044105e-21
-1.555431388e-20
-3.48830744e-21
-1.391013107e-20
-2.363864325e-21
-1.233345475e-20
-1.530121792e-21
-1.087271146e-20
-9.203387388e-22
-9.548814784e-21
-4.809672636e-22
-8.366171726e-21
-1.699467707e-22
-7.319830531e-21
4.527195526e-23
-6.3999825e-21
1.89604452e-22
-5.594711155e-21
2.819638695e-22
-4.891610461e-21
3.36609362e-22
-4.278689434e-21
3.642270901e-22
-3.744836457e-21
3.727797925e-22
-3.280018882e-21
3.681655855e-22
-2.875328834e-21
3.547241239e-22
-2.522944118e-21
3.356229637e-22
-2.216046238e-21
3.131511027e-22
-1.948720511e-21
2.889412222e-22
-1.715852657e-21
2.64137486e-22
-1.513029702e-21
2.395219362e-22
-1.336449094e-21
2.156094861e-22
-1.182837581e-21
1.92719142e-22
-1.049380113e-21
1.71027252e-22
-9.336582838e-22
1.506071809e-22
-8.335975101e-22
1.314587411e-22
-7.474220144e-22
1.135298993e-22
-6.736166706e-22
9.673266658e-23
-6.108948386e-22
8.095461601e-23
-5.581714029e-22
6.606711989e-23
-5.145403327e-22
5.193113887e-23
-4.792561842e-22
3.840119525e-23
-4.517190622e-22
2.532801639e-23
-4.314626449e-22
1.256022581e-23
-4.1814496e-22
-4.115416683e-22
4.129976069e-08
2.825463347e-09
4.080215423e-08
8.768435499e-09
4.133981044e-08
1.424312552e-08
4.266786396e-08
2.460777315e-08
4.489855839e-11
2.805586532e-08
-8.311614746e-08
-9.175955069e-08
-9.337057027e-08
-2.955048212e-07
-3.178067618e-17
-2.858152219e-07
-4.220078019e-20
-3.993944049e-21
-3.619910704e-20
-1.548111195e-20
-2.899636509e-20
-2.25558449e-20
-2.215365426e-20
-2.541961477e-20
-1.631821397e-20
-2.560852813e-20
-1.163836012e-20
-2.428422705e-20
-8.030311552e-21
-2.221720248e-20
-5.325021501e-21
-1.987904038e-20
-3.340323231e-21
-1.753904723e-20
-1.911873634e-21
-1.533861992e-20
-9.032258691e-22
-1.334214585e-20
-2.062473413e-22
-1.156973731e-20
2.623289513e-22
-1.001744231e-20
5.654228893e-22
-8.669320712e-21
7.499607862e-22
-7.504427185e-21
8.506052919e-22
-6.500689362e-21
8.927650745e-22
-5.636936779e-21
8.949404367e-22
-4.893855033e-21
8.705124901e-22
-4.254333942e-21
8.290891957e-22
-3.703488735e-21
7.775089451e-22
-3.228517193e-21
7.205843886e-22
-2.818485696e-21
6.616515733e-22
-2.464095444e-21
6.029742592e-22
-2.157455651e-21
5.460410196e-22
-1.891876446e-21
4.917831873e-22
-1.661686307e-21
4.407344586e-22
-1.462074624e-21
3.931475228e-22
-1.288957836e-21
3.490790448e-22
-1.138866666e-21
3.084513432e-22
-1.008851719e-21
2.710969037e-22
-8.96404754e-22
2.367902514e-22
-7.993932287e-22
2.052705174e-22
-7.160059713e-22
1.762571562e-22
-6.447081798e-22
1.494606319e-22
-5.842042239e-22
1.245894131e-22
-5.334069928e-22
1.013542674e-22
-4.914127558e-22
7.947059221e-23
-4.574806987e-22
5.865932219e-23
-4.310164643e-22
3.864682294e-23
-4.115591619e-22
1.916407287e-23
-3.987714321e-22
-3.924322534e-22
4.717890444e-08
2.842763805e-09
4.72993727e-08
8.647967267e-09
4.682493943e-08
1.47175588e-08
5.083853215e-08
2.059418047e-08
3.993364177e-08
3.896075576e-08
-4.183874576e-08
-9.987163148e-09
-9.52562153e-08
-2.420873515e-07
-5.001560147e-17
-3.810714374e-07
-5.496007223e-20
-1.175729126e-20
-4.328172817e-20
-2.715946011e-20
-3.186780308e-20
-3.39697787e-20
-2.234837385e-20
-3.493905737e-20
-1.499776683e-20
-3.295915297e-20
-9.573695491e-21
-2.970832061e-20
-5.693497667e-21
-2.609742687e-20
-2.985736537e-21
-2.258683238e-20
-1.140218657e-21
-1.938460021e-20
8.449935235e-23
-1.656337718e-20
8.692020943e-22
-1.412689193e-20
1.346127152e-21
-1.204670971e-20
1.610555151e-21
-1.028192156e-20
1.730426699e-21
-8.789247324e-21
1.753804412e-21
-7.527863671e-21
1.714454415e-21
-6.461401737e-21
1.635932352e-21
-5.558480576e-21
1.534535939e-21
-4.792527846e-21
1.421421699e-21
-4.141292175e-21
1.3041154e-21
-3.586258028e-21
1.187586932e-21
-3.112067307e-21
1.075014091e-21
-2.705994295e-21
9.683248127e-22
-2.357490327e-21
8.685818199e-22
-2.057799407e-21
7.762552098e-22
-1.799639032e-21
6.914152864e-22
-1.576937889e-21
6.13868592e-22
-1.384621603e-21
5.432534379e-22
-1.218438382e-21
4.791065324e-22
-1.074817347e-21
4.209089699e-22
-9.507534874e-22
3.68117484e-22
-8.437142017e-22
3.201851821e-22
-7.515633217e-22
2.765747865e-22
-6.724992907e-22
2.367665471e-22
-6.050048348e-22
2.002623812e-22
-5.478059916e-22
1.665873538e-22
-4.998387984e-22
1.35289296e-22
-4.602222909e-22
1.059371308e-22
-4.282367473e-22
7.811831122e-23
-4.033063407e-22
5.143565773e-23
-3.849855484e-22
2.550379834e-23
-3.729488185e-22
-3.669831236e-22
5.303743838e-08
2.785472224e-09
5.352420176e-08
8.161203912e-09
5.38543908e-08
1.438736978e-08
5.61544385e-08
1.829413279e-08
6.426163571e-08
3.085355857e-08
1.428583394e-08
3.998863854e-08
-7.97874362e-08
-1.480140812e-07
-2.664426839e-17
-4.608588737e-07
-7.216323697e-20
-3.555594308e-20
-5.011489908e-20
-4.92078021e-20
-3.285154846e-20
-5.123313802e-20
-2.037687038e-20
-4.741374881e-20
-1.175149614e-20
-4.158454504e-20
-5.965108322e-21
-3.549473065e-20
-2.183946393e-21
-2.987861537e-20
2.161306878e-22
-2.498694033e-20
1.680984736e-21
-2.084948936e-20
2.521126212e-21
-1.740355792e-20
2.949588536e-21
-1.45553976e-20
3.111131521e-21
-1.220830005e-20
3.103433407e-21
-1.027427471e-20
2.991992141e-21
-8.677861134e-21
2.820423219e-21
-7.356353536e-21
2.617508421e-21
-6.258549326e-21
2.40199633e-21
-5.34303436e-21
2.185864182e-21
-4.576464941e-21
1.976532633e-21
-3.932033116e-21
1.778369748e-21
-3.388170753e-21
1.593712686e-21
-2.927488845e-21
1.423561838e-21
-2.535924904e-21
1.268052145e-21
-2.202064815e-21
1.12677255e-21
-1.916606579e-21