/*--------------------------------*- C++ -*----------------------------------*\
  =========                 |
  \\      /  F ield         | OpenFOAM: The Open Source CFD Toolbox
   \\    /   O peration     | Website:  https://openfoam.org
    \\  /    A nd           | Version:  6
     \\/     M anipulation  |
\*---------------------------------------------------------------------------*/
FoamFile
{
    version     2.0;
    format      ascii;
    class       volScalarField;
    location    "0.12";
    object      pVap;
}
// * * * * * * * * * * * * * * * * * * * * * * * * * * * * * * * * * * * * * //

dimensions      [1 -1 -2 0 0 0 0];

internalField   nonuniform List<scalar> 
2500
(
55294.09378
55293.85256
55293.52355
55293.24869
55293.0366
55292.86903
55292.72682
55292.63589
1.075638917
1.075065846
1.074717388
1.07451012
1.074390812
1.074324528
1.074288971
1.07427051
1.074261195
1.07425661
1.0742544
1.074253356
1.074252873
1.074252655
1.074252558
1.074252517
1.0742525
1.074252493
1.07425249
1.074252489
1.074252489
1.074252489
1.074252489
1.074252489
1.074252489
1.074252489
1.074252489
1.074252489
1.074252489
1.074252489
1.074252489
1.074252489
1.074252489
1.074252489
1.074252489
1.074252489
1.074252489
1.074252489
1.074252489
1.074252489
1.074252489
1.074252489
55295.54988
55295.28918
55294.83338
55294.28795
55293.76836
55293.3347
55292.95841
55292.62563
1.078400759
1.076728102
1.075684999
1.0750561
1.074689972
1.074484019
1.074371886
1.074312628
1.074282125
1.074266786
1.074259235
1.074255596
1.074253883
1.074253096
1.074252745
1.074252594
1.07425253
1.074252505
1.074252495
1.074252491
1.07425249
1.074252489
1.074252489
1.074252489
1.074252489
1.074252489
1.074252489
1.074252489
1.074252489
1.074252489
1.074252489
1.074252489
1.074252489
1.074252489
1.074252489
1.074252489
1.074252489
1.074252489
1.074252489
1.074252489
1.074252489
1.074252489
55296.28879
55296.08062
55295.66857
55295.07523
55294.38963
55293.75559
55293.18054
55292.62654
1.0813496
1.078564405
1.076798314
1.075714778
1.075070787
1.074699262
1.074490771
1.074376712
1.074315775
1.074283956
1.074267729
1.07425966
1.07425576
1.074253932
1.074253104
1.074252742
1.074252589
1.074252527
1.074252503
1.074252494
1.074252491
1.074252489
1.074252489
1.074252489
1.074252489
1.074252489
1.074252489
1.074252489
1.074252489
1.074252489
1.074252489
1.074252489
1.074252489
1.074252489
1.074252489
1.074252489
1.074252489
1.074252489
1.074252489
1.074252489
1.074252489
1.074252489
55296.73596
55296.57658
55296.23895
55295.69891
55294.96134
55294.17128
55293.41163
55292.63683
1.084808129
1.080825685
1.078254122
1.076635437
1.075640932
1.075043727
1.074693018
1.074491695
1.074378884
1.074317318
1.074284687
1.074267941
1.074259642
1.07425568
1.074253859
1.074253056
1.074252714
1.074252575
1.074252521
1.0742525
1.074252493
1.07425249
1.074252489
1.074252489
1.074252489
1.074252489
1.074252489
1.074252489
1.074252489
1.074252489
1.074252489
1.074252489
1.074252489
1.074252489
1.074252489
1.074252489
1.074252489
1.074252489
1.074252489
1.074252489
1.074252489
1.074252489
55297.05526
55296.93744
55296.66858
55296.20395
55295.49366
55294.58869
55293.65102
55292.65585
1.089310656
1.083979911
1.080435406
1.078112988
1.076614169
1.07566339
1.075072701
1.074714899
1.074504545
1.074385006
1.074319563
1.074285133
1.074267754
1.074259346
1.074255448
1.074253716
1.074252978
1.074252677
1.074252558
1.074252514
1.074252497
1.074252492
1.07425249
1.074252489
1.074252489
1.074252489
1.074252489
1.074252489
1.074252489
1.074252489
1.074252489
1.074252489
1.074252489
1.074252489
1.074252489
1.074252489
1.074252489
1.074252489
1.074252489
1.074252489
1.074252489
1.074252489
55297.31158
55297.23174
55297.02547
55296.63329
55295.98115
55295.0227
55293.90368
55292.67893
1.095899091
1.088951085
1.084104633
1.080735782
1.07841638
1.076848212
1.075815986
1.075159314
1.074757732
1.074522495
1.074390781
1.074320355
1.074284404
1.074266878
1.074258712
1.074255073
1.07425352
1.074252885
1.074252635
1.074252541
1.074252507
1.074252495
1.074252491
1.074252489
1.074252489
1.074252489
1.074252489
1.074252489
1.074252489
1.074252489
1.074252489
1.074252489
1.074252489
1.074252489
1.074252489
1.074252489
1.074252489
1.074252489
1.074252489
1.074252489
1.074252489
1.074252489
55297.53268
55297.48928
55297.34473
55297.02411
55296.43391
55295.47337
55294.17621
55292.70859
1.106640333
1.097570573
1.090767496
1.085659425
1.0818788
1.079160423
1.077281532
1.076041301
1.075262167
1.074796989
1.074533082
1.07439073
1.074317652
1.074281903
1.074265216
1.074257773
1.074254596
1.074253297
1.074252787
1.074252595
1.074252525
1.074252501
1.074252493
1.07425249
1.074252489
1.074252489
1.074252489
1.074252489
1.074252489
1.074252489
1.074252489
1.074252489
1.074252489
1.074252489
1.074252489
1.074252489
1.074252489
1.074252489
1.074252489
1.074252489
1.074252489
1.074252489
55297.73343
55297.72352
55297.64189
55297.39925
55296.88393
55295.94993
55294.50185
55292.75677
1.125659501
1.113427884
1.103343434
1.095101524
1.088579859
1.083656852
1.080137255
1.07776046
1.076244696
1.075330927
1.074809412
1.07452713
1.074381963
1.074310907
1.074277745
1.074262964
1.074256662
1.074254087
1.074253078
1.074252698
1.074252561
1.074252513
1.074252496
1.074252491
1.07425249
1.074252489
1.074252489
1.074252489
1.074252489
1.074252489
1.074252489
1.074252489
1.074252489
1.074252489
1.074252489
1.074252489
1.074252489
1.074252489
1.074252489
1.074252489
1.074252489
1.074252489
55297.92733
55297.94247
55297.92183
55297.76495
55297.34225
55296.46948
55294.92771
55292.82661
1.160938561
1.143443903
1.127395583
1.113223667
1.101434831
1.092260511
1.085582644
1.081026438
1.078104425
1.076338045
1.075328926
1.07478279
1.074502164
1.074364976
1.074301046
1.074272596
1.074260486
1.074255547
1.074253615
1.074252888
1.074252626
1.074252534
1.074252503
1.074252493
1.07425249
1.074252489
1.074252489
1.074252489
1.074252489
1.074252489
1.074252489
1.074252489
1.074252489
1.074252489
1.074252489
1.074252489
1.074252489
1.074252489
1.074252489
1.074252489
1.074252489
1.074252489
55298.13019
55298.15578
55298.18592
55298.11852
55297.80453
55297.02592
55295.45597
55292.91732
1.227997783
1.201007094
1.17347241
1.147723705
1.125704289
1.108364734
1.095694604
1.087049183
1.081513492
1.078174776
1.076272224
1.075245215
1.074718839
1.074462144
1.074342804
1.074289815
1.074267307
1.074258146
1.074254568
1.074253225
1.074252741
1.074252572
1.074252515
1.074252497
1.074252491
1.07425249
1.074252489
1.074252489
1.074252489
1.074252489
1.074252489
1.074252489
1.074252489
1.074252489
1.074252489
1.074252489
1.074252489
1.074252489
1.074252489
1.074252489
1.074252489
1.074252489
55298.34971
55298.37772
55298.43754
55298.45622
55298.26445
55297.6117
55296.07781
55294.28649
1.358682183
1.312867123
1.261887276
1.212841781
1.170751047
1.137807057
1.113947205
1.097808422
1.08755326
1.081407283
1.07792337
1.076050991
1.075094942
1.074630243
1.074414833
1.074319439
1.074279014
1.074262597
1.074256198
1.074253801
1.074252937
1.074252636
1.074252536
1.074252503
1.074252493
1.07425249
1.074252489
1.074252489
1.074252489
1.074252489
1.074252489
1.074252489
1.074252489
1.074252489
1.074252489
1.074252489
1.074252489
1.074252489
1.074252489
1.074252489
1.074252489
1.074252489
55298.58491
55298.61434
55298.68509
55298.77748
55298.71869
55298.22606
55296.79412
55296.48284
1.623823133
1.535881538
1.433431294
1.335487966
1.253265984
1.190472846
1.145981107
1.116415821
1.097883003
1.08688929
1.080705332
1.077401589
1.075722667
1.074909798
1.074534247
1.074368416
1.074298324
1.074269922
1.074258875
1.074254744
1.074253257
1.074252742
1.074252569
1.074252514
1.074252496
1.074252491
1.074252489
1.074252489
1.074252489
1.074252489
1.074252489
1.074252489
1.074252489
1.074252489
1.074252489
1.074252489
1.074252489
1.074252489
1.074252489
1.074252489
1.074252489
1.074252489
55298.8372
55298.86825
55298.95136
55299.08609
55299.16674
55298.87327
55297.62764
55294.10468
2.199909347
2.002973324
1.776186971
1.569003455
1.403680125
1.283081442
1.200759542
1.147582916
1.114928118
1.0958382
1.085210991
1.079576036
1.076728581
1.075356068
1.074724261
1.074446134
1.074328888
1.074281492
1.074263094
1.074256228
1.074253761
1.074252907
1.074252622
1.07425253
1.074252501
1.074252492
1.07425249
1.074252489
1.074252489
1.074252489
1.074252489
1.074252489
1.074252489
1.074252489
1.074252489
1.074252489
1.074252489
1.074252489
1.074252489
1.074252489
1.074252489
1.074252489
55299.10515
55299.13838
55299.22635
55299.39365
55299.60665
55299.55528
55298.60317
55294.99075
3.596094636
3.065992843
2.500204334
2.027066553
1.679990753
1.444368272
1.292378876
1.198214723
1.14206275
1.109887324
1.092216632
1.082933753
1.078273898
1.076038872
1.075014022
1.074564314
1.074375253
1.074299005
1.074269469
1.074258467
1.07425452
1.074253156
1.074252701
1.074252554
1.074252508
1.074252494
1.07425249
1.074252489
1.074252489
1.074252489
1.074252489
1.074252489
1.074252489
1.074252489
1.074252489
1.074252489
1.074252489
1.074252489
1.074252489
1.074252489
1.074252489
1.074252489
55299.38812
55299.42453
55299.52134
55299.71535
55300.02622
55300.26066
55299.72052
55296.40789
7.537883198
5.790857234
4.164555527
2.973356463
2.199378244
1.72523682
1.443027788
1.278158896
1.183747231
1.131082361
1.102660025
1.087898831
1.080545914
1.077038466
1.075436775
1.07473625
1.074442543
1.074324369
1.074278685
1.074261697
1.074255614
1.074253514
1.074252814
1.074252589
1.074252518
1.074252497
1.074252491
1.074252489
1.074252489
1.074252489
1.074252489
1.074252489
1.074252489
1.074252489
1.074252489
1.074252489
1.074252489
1.074252489
1.074252489
1.074252489
1.074252489
1.074252489
55299.68477
55299.72503
55299.83433
55300.05157
55300.43522
55300.95636
55300.93829
55298.34581
20.75377513
13.80569905
8.408252581
5.068567013
3.212390455
2.218933183
1.687855759
1.401118774
1.245557145
1.161781572
1.117563178
1.094916767
1.083736778
1.078435904
1.076025729
1.074975107
1.074535804
1.074359449
1.074291408
1.07426615
1.074257119
1.074254005
1.074252969
1.074252636
1.074252533
1.074252501
1.074252492
1.07425249
1.074252489
1.074252489
1.074252489
1.074252489
1.074252489
1.074252489
1.074252489
1.074252489
1.074252489
1.074252489
1.074252489
1.074252489
1.074252489
1.074252489
55299.99218
55300.03799
55300.16427
55300.4164
55300.86236
55301.57822
55302.17732
55300.67212
71.20857039
40.18416366
20.30119679
10.04787924
5.274281716
3.099802992
2.082512972
1.58558968
1.333991053
1.204412143
1.137882484
1.104377668
1.088007507
1.080297161
1.076807373
1.075291231
1.07465895
1.07440568
1.074308146
1.074271999
1.074259093
1.07425465
1.074253173
1.074252698
1.074252551
1.074252507
1.074252494
1.07425249
1.074252489
1.074252489
1.074252489
1.074252489
1.074252489
1.074252489
1.074252489
1.074252489
1.074252489
1.074252489
1.074252489
1.074252489
1.074252489
1.074252489
55300.30502
55300.35855
55300.50613
55300.80446
55301.3239
55302.18695
55303.34009
55303.10368
266.5231652
129.7420993
55.15779463
22.43235894
9.610303611
4.69048695
2.71294127
1.855230929
1.455849597
1.261031837
1.164278754
1.116507063
1.093438955
1.082652034
1.077792748
1.075688667
1.074813432
1.074463568
1.074329072
1.074279301
1.074261555
1.074255452
1.074253426
1.074252776
1.074252574
1.074252513
1.074252496
1.074252491
1.074252489
1.074252489
1.074252489
1.074252489
1.074252489
1.074252489
1.074252489
1.074252489
1.074252489
1.074252489
1.074252489
1.074252489
1.074252489
1.074252489
55300.61584
55300.67931
55300.85382
55301.20968
55301.8324
55302.83724
55304.34028
55305.33944
927.2224558
409.3606497
153.5252837
53.00641807
18.75397298
7.553189424
3.702689021
2.237175058
1.61685537
1.332656223
1.196818844
1.131236863
1.099976879
1.085471244
1.078968151
1.0761615
1.074996841
1.074532179
1.074353836
1.074287932
1.074264462
1.074256399
1.074253724
1.074252867
1.074252601
1.074252521
1.074252498
1.074252491
1.074252489
1.074252489
1.074252489
1.074252489
1.074252489
1.074252489
1.074252489
1.074252489
1.074252489
1.074252489
1.074252489
1.074252489
1.074252489
1.074252489
55300.91503
55300.99007
55301.1962
55301.61755
55302.36258
55303.53731
55305.26152
55307.19026
2666.634319
1133.23923
398.1835397
122.9857191
37.21043361
12.54177301
5.203482644
2.755576804
1.819145951
1.4183655
1.234652229
1.148083199
1.107384221
1.088647555
1.080287718
1.076691
1.07520184
1.074608746
1.074381437
1.07429754
1.074267694
1.074257451
1.074254055
1.074252968
1.074252631
1.07425253
1.0742525
1.074252492
1.07425249
1.074252489
1.074252489
1.074252489
1.074252489
1.074252489
1.074252489
1.074252489
1.074252489
1.074252489
1.074252489
1.074252489
1.074252489
1.074252489
55301.19135
55301.27888
55301.51939
55302.01205
55302.88973
55304.27424
55306.21314
55308.59574
6057.262168
2595.37228
899.4216145
262.1200888
70.99720042
20.6343217
7.343205545
3.41744572
2.057585855
1.514339301
1.275749376
1.166071259
1.115217923
1.091988143
1.081670804
1.077244707
1.075415842
1.074688566
1.074410176
1.074307535
1.074271054
1.074258543
1.074254399
1.074253073
1.074252662
1.074252538
1.074252503
1.074252493
1.07425249
1.074252489
1.074252489
1.074252489
1.074252489
1.074252489
1.074252489
1.074252489
1.074252489
1.074252489
1.074252489
1.074252489
1.074252489
1.074252489
55301.43285
55301.53287
55301.80749
55302.37051
55303.3717
55304.94379
55307.03389
55309.61081
10987.01884
4859.955641
1713.775595
490.5526688
124.2175435
32.30764633
10.11063887
4.191185113
2.315801912
1.613187838
1.316831629
1.18375315
1.122847262
1.095224664
1.083006629
1.0777784
1.075621801
1.074765296
1.074437776
1.074317125
1.074274275
1.074259589
1.074254728
1.074253173
1.074252691
1.074252547
1.074252505
1.074252493
1.07425249
1.074252489
1.074252489
1.074252489
1.074252489
1.074252489
1.074252489
1.074252489
1.074252489
1.074252489
1.074252489
1.074252489
1.074252489
1.074252489
55301.62773
55301.73929
55302.04518
55302.67262
55303.78346
55305.5092
55307.71862
55310.30233
16460.73834
7553.091693
2741.380859
788.192827
192.7765785
46.51761978
13.20878045
4.987299658
2.564313622
1.70415009
1.353631892
1.199354402
1.129523517
1.098043972
1.084167156
1.078241265
1.075800211
1.074831699
1.074461643
1.074325412
1.074277057
1.074260493
1.074255012
1.074253259
1.074252717
1.074252554
1.074252507
1.074252494
1.07425249
1.074252489
1.074252489
1.074252489
1.074252489
1.074252489
1.074252489
1.074252489
1.074252489
1.074252489
1.074252489
1.074252489
1.074252489
1.074252489
55301.76525
55301.88616
55302.21748
55302.89796
55304.09997
55305.94339
55308.25338
55310.73124
21096.03242
9969.132798
3713.50344
1080.018123
260.2986761
60.07306075
15.99906453
5.660750842
2.763940656
1.774674647
1.381557668
1.211051473
1.134496418
1.100136483
1.08502674
1.078583659
1.075932066
1.074880742
1.07447926
1.074331527
1.074279108
1.074261158
1.074255222
1.074253323
1.074252736
1.07425256
1.074252509
1.074252494
1.07425249
1.074252489
1.074252489
1.074252489
1.074252489
1.074252489
1.074252489
1.074252489
1.074252489
1.074252489
1.074252489
1.074252489
1.074252489
1.074252489
55301.83667
55301.96305
55302.30938
55303.02174
55304.28049
55306.19378
55308.58938
55310.93904
23730.59132
11393.52082
4307.264841
1263.023856
302.9823237
68.51323058
17.67998572
6.051208
2.875968278
1.813363029
1.396666367
1.217330842
1.137154816
1.101252541
1.085484613
1.078765895
1.076002206
1.074906818
1.074488624
1.074334776
1.074280198
1.074261512
1.074255333
1.074253357
1.074252746
1.074252563
1.074252509
1.074252494
1.07425249
1.074252489
1.074252489
1.074252489
1.074252489
1.074252489
1.074252489
1.074252489
1.074252489
1.074252489
1.074252489
1.074252489
1.074252489
1.074252489
55301.83667
55301.96305
55302.30938
55303.02174
55304.28049
55306.19378
55308.58938
55310.9389
23730.59154
11393.52075
4307.264816
1263.023849
302.9823225
68.51323038
17.67998569
6.051207995
2.875968277
1.813363028
1.396666367
1.217330842
1.137154816
1.101252541
1.085484613
1.078765895
1.076002206
1.074906818
1.074488624
1.074334776
1.074280198
1.074261512
1.074255333
1.074253357
1.074252746
1.074252563
1.074252509
1.074252494
1.07425249
1.074252489
1.074252489
1.074252489
1.074252489
1.074252489
1.074252489
1.074252489
1.074252489
1.074252489
1.074252489
1.074252489
1.074252489
1.074252489
55301.76525
55301.88616
55302.21748
55302.89796
55304.09997
55305.94339
55308.25338
55310.73097
21096.03336
9969.132621
3713.50338
1080.018108
260.2986735
60.07306035
15.99906447
5.660750831
2.763940654
1.774674647
1.381557668
1.211051473
1.134496418
1.100136483
1.08502674
1.078583659
1.075932066
1.074880742
1.07447926
1.074331527
1.074279108
1.074261158
1.074255222
1.074253323
1.074252736
1.07425256
1.074252509
1.074252494
1.07425249
1.074252489
1.074252489
1.074252489
1.074252489
1.074252489
1.074252489
1.074252489
1.074252489
1.074252489
1.074252489
1.074252489
1.074252489
1.074252489
55301.62773
55301.73929
55302.04518
55302.67262
55303.78346
55305.5092
55307.71862
55310.30211
16460.73965
7553.091496
2741.380801
788.1928144
192.7765765
46.5176195
13.20878041
4.987299654
2.564313622
1.70415009
1.353631892
1.199354402
1.129523517
1.098043972
1.084167156
1.078241265
1.075800211
1.074831699
1.074461643
1.074325412
1.074277057
1.074260493
1.074255012
1.074253259
1.074252717
1.074252554
1.074252507
1.074252494
1.07425249
1.074252489
1.074252489
1.074252489
1.074252489
1.074252489
1.074252489
1.074252489
1.074252489
1.074252489
1.074252489
1.074252489
1.074252489
1.074252489
55301.43285
55301.53287
55301.80749
55302.37051
55303.3717
55304.94379
55307.03389
55309.61115
10987.01958
4859.955538
1713.775572
490.5526652
124.2175432
32.30764636
10.11063889
4.191185122
2.315801916
1.613187839
1.31683163
1.183753151
1.122847262
1.095224664
1.083006629
1.0777784
1.075621801
1.074765296
1.074437776
1.074317125
1.074274275
1.074259589
1.074254728
1.074253173
1.074252691
1.074252547
1.074252505
1.074252493
1.07425249
1.074252489
1.074252489
1.074252489
1.074252489
1.074252489
1.074252489
1.074252489
1.074252489
1.074252489
1.074252489
1.074252489
1.074252489
1.074252489
55301.19135
55301.27888
55301.51939
55302.01205
55302.88973
55304.27424
55306.21314
55308.59699
6057.26194
2595.372303
899.421626
262.1200929
70.99720154
20.63432198
7.343205623
3.417445744
2.057585863
1.514339304
1.275749377
1.166071259
1.115217923
1.091988143
1.081670804
1.077244707
1.075415842
1.074688566
1.074410176
1.074307535
1.074271054
1.074258543
1.074254399
1.074253073
1.074252662
1.074252538
1.074252503
1.074252493
1.07425249
1.074252489
1.074252489
1.074252489
1.074252489
1.074252489
1.074252489
1.074252489
1.074252489
1.074252489
1.074252489
1.074252489
1.074252489
1.074252489
55300.91503
55300.99007
55301.1962
55301.61755
55302.36258
55303.53731
55305.26152
55307.19145
2666.633739
1133.239304
398.1835619
122.985725
37.21043505
12.54177337
5.203482746
2.755576837
1.819145963
1.418365505
1.234652231
1.1480832
1.107384221
1.088647555
1.080287718
1.076691
1.07520184
1.074608746
1.074381437
1.07429754
1.074267694
1.074257451
1.074254055
1.074252968
1.074252631
1.07425253
1.0742525
1.074252492
1.07425249
1.074252489
1.074252489
1.074252489
1.074252489
1.074252489
1.074252489
1.074252489
1.074252489
1.074252489
1.074252489
1.074252489
1.074252489
1.074252489
55300.61584
55300.67931
55300.85382
55301.20968
55301.8324
55302.83724
55304.34028
55305.33997
927.2223401
409.3606983
153.5252986
53.00642217
18.75397407
7.553189731
3.702689118
2.237175093
1.616855383
1.332656229
1.196818846
1.131236865
1.099976879
1.085471244
1.078968151
1.0761615
1.074996841
1.074532179
1.074353836
1.074287932
1.074264462
1.074256399
1.074253724
1.074252867
1.074252601
1.074252521
1.074252498
1.074252491
1.074252489
1.074252489
1.074252489
1.074252489
1.074252489
1.074252489
1.074252489
1.074252489
1.074252489
1.074252489
1.074252489
1.074252489
1.074252489
1.074252489
55300.30502
55300.35855
55300.50613
55300.80446
55301.3239
55302.18695
55303.34009
55303.10268
266.5231916
129.7421184
55.15780128
22.43236104
9.610304263
4.690487164
2.712941347
1.855230959
1.45584961
1.261031843
1.164278757
1.116507064
1.093438956
1.082652035
1.077792748
1.075688667
1.074813432
1.074463568
1.074329072
1.074279301
1.074261555
1.074255452
1.074253426
1.074252776
1.074252574
1.074252513
1.074252496
1.074252491
1.074252489
1.074252489
1.074252489
1.074252489
1.074252489
1.074252489
1.074252489
1.074252489
1.074252489
1.074252489
1.074252489
1.074252489
1.074252489
1.074252489
55299.99218
55300.03799
55300.16427
55300.4164
55300.86236
55301.57822
55302.17732
55300.67008
71.20858181
40.18416974
20.30119927
10.04788017
5.274282061
3.099803125
2.082513027
1.585589704
1.333991064
1.204412148
1.137882487
1.104377669
1.088007507
1.080297161
1.076807373
1.075291231
1.07465895
1.07440568
1.074308146
1.074271999
1.074259093
1.07425465
1.074253173
1.074252698
1.074252551
1.074252507
1.074252494
1.07425249
1.074252489
1.074252489
1.074252489
1.074252489
1.074252489
1.074252489
1.074252489
1.074252489
1.074252489
1.074252489
1.074252489
1.074252489
1.074252489
1.074252489
55299.68477
55299.72503
55299.83433
55300.05157
55300.43522
55300.95636
55300.93829
55298.34503
20.75377832
13.80570089
8.408253467
5.068567409
3.212390629
2.218933261
1.687855795
1.401118791
1.245557153
1.161781576
1.11756318
1.094916767
1.083736778
1.078435904
1.076025729
1.074975107
1.074535804
1.074359449
1.074291408
1.07426615
1.074257119
1.074254005
1.074252969
1.074252636
1.074252533
1.074252501
1.074252492
1.07425249
1.074252489
1.074252489
1.074252489
1.074252489
1.074252489
1.074252489
1.074252489
1.074252489
1.074252489
1.074252489
1.074252489
1.074252489
1.074252489
1.074252489
55299.38812
55299.42453
55299.52135
55299.71535
55300.02622
55300.26066
55299.72052
55296.41017
7.537884131
5.790857823
4.164555855
2.973356634
2.199378331
1.725236864
1.44302781
1.278158908
1.183747236
1.131082364
1.102660027
1.087898831
1.080545914
1.077038466
1.075436775
1.07473625
1.074442543
1.074324369
1.074278685
1.074261697
1.074255614
1.074253514
1.074252814
1.074252589
1.074252518
1.074252497
1.074252491
1.074252489
1.074252489
1.074252489
1.074252489
1.074252489
1.074252489
1.074252489
1.074252489
1.074252489
1.074252489
1.074252489
1.074252489
1.074252489
1.074252489
1.074252489
55299.10515
55299.13838
55299.22635
55299.39365
55299.60665
55299.55528
55298.60317
55294.99552
3.596094986
3.065993056
2.500204465
2.027066629
1.679990796
1.444368296
1.292378889
1.19821473
1.142062754
1.109887326
1.092216633
1.082933753
1.078273898
1.076038873
1.075014022
1.074564314
1.074375253
1.074299005
1.074269469
1.074258467
1.07425452
1.074253156
1.074252701
1.074252554
1.074252508
1.074252494
1.07425249
1.074252489
1.074252489
1.074252489
1.074252489
1.074252489
1.074252489
1.074252489
1.074252489
1.074252489
1.074252489
1.074252489
1.074252489
1.074252489
1.074252489
1.074252489
55298.8372
55298.86825
55298.95136
55299.08609
55299.16674
55298.87327
55297.62765
55294.10248
2.19990953
2.002973414
1.776187028
1.569003489
1.403680146
1.283081455
1.200759549
1.14758292
1.11492812
1.095838201
1.085210992
1.079576036
1.076728581
1.075356068
1.074724261
1.074446134
1.074328888
1.074281492
1.074263094
1.074256228
1.074253761
1.074252907
1.074252622
1.07425253
1.074252501
1.074252492
1.07425249
1.074252489
1.074252489
1.074252489
1.074252489
1.074252489
1.074252489
1.074252489
1.074252489
1.074252489
1.074252489
1.074252489
1.074252489
1.074252489
1.074252489
1.074252489
55298.58491
55298.61435
55298.68509
55298.77748
55298.71869
55298.22606
55296.79412
55296.34293
1.623823251
1.535881581
1.433431319
1.335487981
1.253265994
1.190472851
1.14598111
1.116415823
1.097883004
1.086889291
1.080705332
1.077401589
1.075722667
1.074909798
1.074534247
1.074368416
1.074298324
1.074269922
1.074258875
1.074254744
1.074253257
1.074252742
1.074252569
1.074252514
1.074252496
1.074252491
1.074252489
1.074252489
1.074252489
1.074252489
1.074252489
1.074252489
1.074252489
1.074252489
1.074252489
1.074252489
1.074252489
1.074252489
1.074252489
1.074252489
1.074252489
1.074252489
55298.34971
55298.37772
55298.43754
55298.45623
55298.26445
55297.6117
55296.07781
55294.25571
1.358682234
1.31286714
1.261887285
1.212841786
1.17075105
1.137807059
1.113947206
1.097808423
1.08755326
1.081407283
1.077923371
1.076050991
1.075094942
1.074630243
1.074414833
1.074319439
1.074279014
1.074262597
1.074256198
1.074253801
1.074252937
1.074252636
1.074252536
1.074252503
1.074252493
1.07425249
1.074252489
1.074252489
1.074252489
1.074252489
1.074252489
1.074252489
1.074252489
1.074252489
1.074252489
1.074252489
1.074252489
1.074252489
1.074252489
1.074252489
1.074252489
1.074252489
55298.13019
55298.15578
55298.18592
55298.11852
55297.80453
55297.02592
55295.45596
55292.9167
1.227997788
1.201007097
1.173472411
1.147723706
1.125704289
1.108364735
1.095694605
1.087049183
1.081513492
1.078174776
1.076272224
1.075245215
1.074718839
1.074462144
1.074342804
1.074289815
1.074267307
1.074258146
1.074254568
1.074253225
1.074252741
1.074252572
1.074252515
1.074252497
1.074252491
1.07425249
1.074252489
1.074252489
1.074252489
1.074252489
1.074252489
1.074252489
1.074252489
1.074252489
1.074252489
1.074252489
1.074252489
1.074252489
1.074252489
1.074252489
1.074252489
1.074252489
55297.92734
55297.94247
55297.92184
55297.76495
55297.34225
55296.46948
55294.92771
55292.82635
1.160938557
1.143443901
1.12739558
1.113223665
1.101434831
1.092260511
1.085582643
1.081026438
1.078104425
1.076338045
1.075328926
1.07478279
1.074502164
1.074364976
1.074301046
1.074272596
1.074260486
1.074255547
1.074253615
1.074252888
1.074252626
1.074252534
1.074252503
1.074252493
1.07425249
1.074252489
1.074252489
1.074252489
1.074252489
1.074252489
1.074252489
1.074252489
1.074252489
1.074252489
1.074252489
1.074252489
1.074252489
1.074252489
1.074252489
1.074252489
1.074252489
1.074252489
55297.73343
55297.72353
55297.64189
55297.39925
55296.88393
55295.94992
55294.50185
55292.75732
1.125659497
1.113427879
1.10334343
1.095101521
1.088579858
1.083656852
1.080137255
1.07776046
1.076244696
1.075330927
1.074809412
1.07452713
1.074381963
1.074310907
1.074277745
1.074262964
1.074256662
1.074254087
1.074253078
1.074252698
1.074252561
1.074252513
1.074252496
1.074252491
1.07425249
1.074252489
1.074252489
1.074252489
1.074252489
1.074252489
1.074252489
1.074252489
1.074252489
1.074252489
1.074252489
1.074252489
1.074252489
1.074252489
1.074252489
1.074252489
1.074252489
1.074252489
55297.53268
55297.48928
55297.34474
55297.02411
55296.43391
55295.47337
55294.17621
55292.70771
1.106640328
1.097570568
1.090767492
1.085659423
1.081878799
1.079160422
1.077281531
1.076041301
1.075262167
1.074796989
1.074533082
1.07439073
1.074317652
1.074281903
1.074265216
1.074257773
1.074254596
1.074253297
1.074252787
1.074252595
1.074252525
1.074252501
1.074252493
1.07425249
1.074252489
1.074252489
1.074252489
1.074252489
1.074252489
1.074252489
1.074252489
1.074252489
1.074252489
1.074252489
1.074252489
1.074252489
1.074252489
1.074252489
1.074252489
1.074252489
1.074252489
1.074252489
55297.31159
55297.23174
55297.02547
55296.63329
55295.98115
55295.0227
55293.90368
55292.67431
1.095899082
1.08895108
1.084104629
1.080735779
1.078416378
1.076848211
1.075815986
1.075159313
1.074757731
1.074522495
1.074390781
1.074320355
1.074284404
1.074266878
1.074258712
1.074255073
1.07425352
1.074252885
1.074252635
1.074252541
1.074252507
1.074252495
1.074252491
1.074252489
1.074252489
1.074252489
1.074252489
1.074252489
1.074252489
1.074252489
1.074252489
1.074252489
1.074252489
1.074252489
1.074252489
1.074252489
1.074252489
1.074252489
1.074252489
1.074252489
1.074252489
1.074252489
55297.05527
55296.93744
55296.66858
55296.20395
55295.49366
55294.58869
55293.65102
55292.65263
1.089310649
1.083979906
1.080435403
1.078112986
1.076614168
1.07566339
1.075072701
1.074714899
1.074504545
1.074385006
1.074319563
1.074285133
1.074267754
1.074259346
1.074255448
1.074253716
1.074252978
1.074252677
1.074252558
1.074252514
1.074252497
1.074252492
1.07425249
1.074252489
1.074252489
1.074252489
1.074252489
1.074252489
1.074252489
1.074252489
1.074252489
1.074252489
1.074252489
1.074252489
1.074252489
1.074252489
1.074252489
1.074252489
1.074252489
1.074252489
1.074252489
1.074252489
55296.73596
55296.57658
55296.23895
55295.69892
55294.96134
55294.17128
55293.41163
55292.6409
1.08480813
1.08082568
1.078254119
1.076635435
1.075640931
1.075043727
1.074693018
1.074491695
1.074378884
1.074317318
1.074284687
1.074267941
1.074259642
1.07425568
1.074253859
1.074253056
1.074252714
1.074252575
1.074252521
1.0742525
1.074252493
1.07425249
1.074252489
1.074252489
1.074252489
1.074252489
1.074252489
1.074252489
1.074252489
1.074252489
1.074252489
1.074252489
1.074252489
1.074252489
1.074252489
1.074252489
1.074252489
1.074252489
1.074252489
1.074252489
1.074252489
1.074252489
55296.2888
55296.08062
55295.66857
55295.07523
55294.38963
55293.7556
55293.18054
55292.63106
1.0813496
1.078564402
1.076798312
1.075714777
1.075070786
1.074699262
1.074490771
1.074376712
1.074315775
1.074283956
1.074267729
1.07425966
1.07425576
1.074253932
1.074253104
1.074252742
1.074252589
1.074252527
1.074252503
1.074252494
1.074252491
1.074252489
1.074252489
1.074252489
1.074252489
1.074252489
1.074252489
1.074252489
1.074252489
1.074252489
1.074252489
1.074252489
1.074252489
1.074252489
1.074252489
1.074252489
1.074252489
1.074252489
1.074252489
1.074252489
1.074252489
1.074252489
55295.54989
55295.28918
55294.83338
55294.28795
55293.76836
55293.3347
55292.95841
55292.61567
1.078400749
1.076728099
1.075684998
1.075056099
1.074689971
1.074484019
1.074371886
1.074312627
1.074282125
1.074266786
1.074259235
1.074255596
1.074253883
1.074253096
1.074252745
1.074252594
1.07425253
1.074252505
1.074252495
1.074252491
1.07425249
1.074252489
1.074252489
1.074252489
1.074252489
1.074252489
1.074252489
1.074252489
1.074252489
1.074252489
1.074252489
1.074252489
1.074252489
1.074252489
1.074252489
1.074252489
1.074252489
1.074252489
1.074252489
1.074252489
1.074252489
1.074252489
55294.09378
55293.85256
55293.52355
55293.24869
55293.0366
55292.86902
55292.72682
55292.59696