/*--------------------------------*- C++ -*----------------------------------*\
  =========                 |
  \\      /  F ield         | OpenFOAM: The Open Source CFD Toolbox
   \\    /   O peration     | Website:  https://openfoam.org
    \\  /    A nd           | Version:  6
     \\/     M anipulation  |
\*---------------------------------------------------------------------------*/
FoamFile
{
    version     2.0;
    format      ascii;
    class       volScalarField;
    location    "0.12";
    object      Temperature;
}
// * * * * * * * * * * * * * * * * * * * * * * * * * * * * * * * * * * * * * //

dimensions      [0 0 0 1 0 0 0];

internalField   nonuniform List<scalar> 
2500
(
321.8191033
318.1055077
313.1751844
309.172001
306.1525976
303.808076
301.8465599
300.0760666
300.0321883
300.0188903
300.0108002
300.0059865
300.0032149
300.0016747
300.0008483
300.0004191
300.0002025
300.0000959
300.0000445
300.0000202
300.000009
300.0000039
300.0000016
300.0000007
300.0000003
300.0000001
300
300
300
300
300
300
300
300
300
300
300
300
300
300
300
300
300
300
300
300
300
300
300
300
346.2183117
341.5820046
333.7667618
324.8713617
316.8280619
310.4132805
305.0538587
300.2155938
300.0962102
300.0574601
300.033267
300.0186695
300.0101668
300.005382
300.0027761
300.0013986
300.0006894
300.0003326
300.000157
300.0000723
300.0000324
300.0000141
300.000006
300.0000024
300.000001
300.0000004
300.0000001
300
300
300
300
300
300
300
300
300
300
300
300
300
300
300
300
300
300
300
300
300
300
300
360.0688271
356.0551781
348.3687607
337.8657349
326.4916899
316.6342115
308.1944774
300.3581318
300.1644174
300.1000123
300.0590972
300.0339641
300.0190143
300.0103847
300.00554
300.0028888
300.001472
300.0007321
300.0003546
300.0001669
300.0000761
300.0000336
300.0000143
300.0000059
300.0000023
300.0000009
300.0000003
300.0000001
300
300
300
300
300
300
300
300
300
300
300
300
300
300
300
300
300
300
300
300
300
300
369.0013085
365.7659389
359.0963972
348.9205947
335.9199147
323.0275153
311.5309203
300.5166557
300.2442199
300.1523326
300.0928421
300.0553299
300.032256
300.0183891
300.0102414
300.0055624
300.0029397
300.001508
300.0007491
300.0003596
300.0001665
300.0000743
300.0000319
300.0000132
300.0000053
300.000002
300.0000007
300.0000003
300.0000001
300
300
300
300
300
300
300
300
300
300
300
300
300
300
300
300
300
300
300
300
300
375.6558635
373.1712175
367.6238803
358.4171605
345.2017682
329.7126065
315.0643887
300.7034161
300.3478005
300.2251654
300.1433342
300.0895884
300.0548459
300.0327825
300.0190648
300.0107511
300.0058616
300.0030823
300.0015604
300.0007595
300.0003552
300.0001596
300.0000689
300.0000286
300.0000114
300.0000044
300.0000016
300.0000006
300.0000002
300.0000001
300
300
300
300
300
300
300
300
300
300
300
300
300
300
300
300
300
300
300
300
381.1743806
379.4372264
375.0228076
366.9078399
354.1649062
336.9649067
318.8820411
300.9437824
300.498734
300.3395982
300.2280784
300.1503031
300.0966307
300.0602825
300.0363293
300.0210788
300.0117475
300.0062793
300.0032167
300.0015789
300.0007426
300.0003349
300.0001448
300.0000602
300.000024
300.0000092
300.0000034
300.0000012
300.0000004
300.0000001
300
300
300
300
300
300
300
300
300
300
300
300
300
300
300
300
300
300
300
300
386.0667867
385.095964
381.8989759
374.9947552
362.9174735
344.8415062
323.1060577
301.2864934
300.7431974
300.5369833
300.3813492
300.2639433
300.1767397
300.1138728
300.0703379
300.0415629
300.0234696
300.0126606
300.0065258
300.0032157
300.001516
300.0006844
300.0002962
300.000123
300.0000491
300.0000188
300.0000069
300.0000025
300.0000008
300.0000003
300.0000001
300
300
300
300
300
300
300
300
300
300
300
300
300
300
300
300
300
300
300
390.6189579
390.391485
388.5295178
383.0993398
372.0560655
353.5811221
328.3024971
301.83384
301.171245
300.8967493
300.668513
300.4806609
300.3311637
300.2178054
300.1364902
300.0814467
300.0462866
300.0250682
300.0129498
300.0063876
300.0030119
300.0013592
300.0005877
300.0002438
300.0000971
300.0000372
300.0000137
300.0000049
300.0000017
300.0000006
300.0000002
300.0000001
300
300
300
300
300
300
300
300
300
300
300
300
300
300
300
300
300
300
395.118783
395.4741631
394.9895079
391.343816
381.8473908
363.6266683
335.354452
302.7703458
301.9494979
301.5661732
301.2101785
300.8922484
300.6251752
300.4156604
300.2622181
300.1570638
300.0894235
300.0484555
300.0250227
300.0123315
300.0058074
300.0026169
300.0011298
300.0004679
300.0001861
300.0000712
300.0000262
300.0000093
300.0000032
300.0000011
300.0000003
300.0000001
300
300
300
300
300
300
300
300
300
300
300
300
300
300
300
300
300
300
399.9387686
400.5548135
401.2831128
399.6584172
392.2585375
375.0369801
344.5330073
304.3962059
303.3759779
302.8099473
302.2214373
301.6605588
301.1725007
300.7825092
300.4942857
300.2959992
300.1683305
300.0910578
300.0469295
300.0230787
300.0108453
300.0048769
300.0021013
300.0008686
300.0003449
300.0001317
300.0000484
300.0000172
300.0000059
300.0000019
300.0000006
300.0000002
300.0000001
300
300
300
300
300
300
300
300
300
300
300
300
300
300
300
300
300
405.2889267
405.9816138
407.4687952
407.9361167
403.1947636
387.8481196
356.0024121
307.2409782
305.9789755
305.0912463
304.0725801
303.0596711
302.1627823
301.4418147
300.908667
300.5425904
300.30761
300.1658821
300.0852338
300.041795
300.0195876
300.0087859
300.0037767
300.0015578
300.0006173
300.0002353
300.0000863
300.0000305
300.0000104
300.0000034
300.0000011
300.0000003
300.0000001
300
300
300
300
300
300
300
300
300
300
300
300
300
300
300
300
300
411.182743
411.9320418
413.7438328
416.1352064
414.6111721
402.259346
370.1973969
312.246133
310.6774846
309.1947919
307.3758923
305.5330841
303.8971457
302.5864428
301.6223851
300.9643097
300.5443138
300.2923423
300.1496561
300.0731378
300.0341718
300.0152851
300.0065539
300.0026972
300.0010666
300.0004058
300.0001487
300.0000525
300.0000179
300.0000059
300.0000019
300.0000006
300.0000002
300
300
300
300
300
300
300
300
300
300
300
300
300
300
300
300
300
417.6980668
418.5139364
420.7133236
424.3285881
426.523512
418.646316
388.2096426
321.0460353
319.0205453
316.3965311
313.0966443
309.7618368
306.827815
304.5006224
302.8051638
301.6576953
300.9308455
300.4976264
300.2536947
300.1235271
300.0575263
300.0256565
300.0109723
300.0045049
300.0017777
300.000675
300.0002469
300.0000871
300.0000296
300.0000097
300.0000031
300.000001
300.0000003
300.0000001
300
300
300
300
300
300
300
300
300
300
300
300
300
300
300
300
424.8475448
425.7512548
428.1617269
432.8220469
438.9052793
437.4239901
411.6499921
336.3541323
333.5151918
328.6697987
322.6728435
316.7294996
311.591228
307.5758019
304.6865423
302.7513234
301.5361007
300.8170861
300.4147364
300.201166
300.0933665
300.041517
300.0177083
300.0072534
300.0028563
300.0010825
300.0003952
300.0001392
300.0000473
300.0000155
300.0000049
300.0000015
300.0000005
300.0000001
300
300
300
300
300
300
300
300
300
300
300
300
300
300
300
300
432.6684879
433.6954087
436.4501779
442.076981
451.4029611
458.7026938
442.2330249
362.395717
358.0095914
348.8823604
338.103951
327.7549238
319.0154747
312.3086772
307.5517058
304.4021309
302.4429184
301.2926895
300.6531984
300.3155974
300.1459802
300.0647196
300.0275328
300.0112515
300.0044216
300.0016726
300.0006097
300.0002143
300.0000728
300.0000239
300.0000076
300.0000023
300.0000007
300.0000002
300.0000001
300
300
300
300
300
300
300
300
300
300
300
300
300
300
300
441.1823694
442.3633645
445.602108
452.1819875
464.2907173
481.8181853
481.1927113
405.1566721
398.0073425
380.8815987
361.9364381
344.4468347
330.0747768
319.2660392
311.7177832
306.78084
303.7397403
301.9685287
300.990237
300.4765927
300.2197124
300.0971252
300.0412134
300.0168044
300.0065906
300.0024887
300.0009057
300.000318
300.0001078
300.0000353
300.0000112
300.0000034
300.000001
300.0000003
300.0000001
300
300
300
300
300
300
300
300
300
300
300
300
300
300
300
450.3655714
451.7667445
455.6744955
463.6825203
478.5586674
504.5437048
528.5677832
472.0350166
460.6519703
429.2982704
397.0455174
368.5243526
345.7615632
329.0016343
317.4834675
310.043168
305.5049927
302.8827463
301.443759
300.6922647
300.3181098
300.1402299
300.0593595
300.0241518
300.0094545
300.0035642
300.0012952
300.0004541
300.0001538
300.0000503
300.0000159
300.0000049
300.0000014
300.0000004
300.0000001
300
300
300
300
300
300
300
300
300
300
300
300
300
300
300
460.1120586
461.8217649
466.6024279
476.5749437
494.9958195
528.9678524
582.3721777
570.5216551
553.9924881
498.8615881
446.1119314
401.4581306
366.857751
341.9185501
325.050224
314.2867098
307.7844795
304.0561612
302.0229252
300.9665152
300.4427807
300.1946753
300.0822186
300.033386
300.0130464
300.0049108
300.0017821
300.0006241
300.0002111
300.000069
300.0000218
300.0000067
300.000002
300.0000006
300.0000002
300
300
300
300
300
300
300
300
300
300
300
300
300
300
300
470.222423
472.3413484
478.2674535
490.8253055
514.462976
557.8114565
638.254777
705.8997944
685.1200525
593.0691578
510.7509116
443.9320416
393.6168756
358.088844
334.4236791
319.4989425
310.5649343
305.4792907
302.722009
301.2962312
300.5921605
300.259724
300.1094622
300.0443679
300.0173103
300.0065066
300.0023583
300.0008249
300.0002787
300.000091
300.0000288
300.0000088
300.0000026
300.0000008
300.0000002
300.0000001
300
300
300
300
300
300
300
300
300
300
300
300
300
300
480.3828166
483.0001341
490.3386603
506.0554646
536.4603628
592.5997829
700.1368401
878.3713705
856.990671
712.2589882
590.3896857
495.2097675
425.4165385
377.0679598
345.3172177
325.5085522
313.7501602
307.1010086
303.5151718
301.6689564
300.7605079
300.3328413
300.1400167
300.0566607
300.0220752
300.0082873
300.0030004
300.0010485
300.0003539
300.0001155
300.0000365
300.0000112
300.0000033
300.000001
300.0000003
300.0000001
300
300
300
300
300
300
300
300
300
300
300
300
300
300
490.1647753
493.3465476
502.3056375
521.7133753
560.2794781
634.236821
778.0617351
1078.482064
1064.361045
851.5241694
681.1993128
552.5963437
460.4924699
397.7662811
357.0913884
331.9575484
317.1485266
308.8230875
304.3541481
302.0619364
300.9375224
300.4095463
300.1720077
300.0695098
300.0270484
300.0101435
300.0036689
300.001281
300.0004321
300.0001409
300.0000445
300.0000136
300.000004
300.0000012
300.0000003
300.0000001
300
300
300
300
300
300
300
300
300
300
300
300
300
300
499.0455583
502.8185939
513.4766895
536.8052817
583.9854541
677.4828541
860.6782055
1290.896588
1291.104087
999.458163
775.5835566
611.2600921
495.8935467
418.4496255
368.7653024
338.3119627
320.4803488
310.5046041
305.1706387
302.4433302
301.1089219
300.4836737
300.2028725
300.0818889
300.0318338
300.0119276
300.004311
300.0015042
300.0005071
300.0001653
300.0000521
300.0000159
300.0000047
300.0000014
300.0000004
300.0000001
300
300
300
300
300
300
300
300
300
300
300
300
300
300
506.4503276
510.7886012
523.0739601
550.2191595
605.8861022
718.875312
944.3292641
1490.960737
1509.411245
1138.481356
862.6773689
664.6468203
527.7695412
436.9208296
379.123779
343.9217203
323.4097722
311.9781772
305.884236
302.7759213
301.2581127
300.5480958
300.2296607
300.0926208
300.0359784
300.0134716
300.0048661
300.001697
300.0005718
300.0001863
300.0000588
300.0000179
300.0000053
300.0000015
300.0000004
300.0000001
300
300
300
300
300
300
300
300
300
300
300
300
300
300
511.8093044
516.6147567
530.2581925
560.6692344
623.8703925
754.2626997
1021.894421
1649.548163
1684.183175
1247.724345
930.1635348
705.57982
552.0139849
450.8831526
386.916131
348.125807
325.5985387
313.0765085
306.4150652
303.0229254
301.3687614
300.5958205
300.2494866
300.1005569
300.0390411
300.0146118
300.0052759
300.0018393
300.0006196
300.0002018
300.0000636
300.0000194
300.0000057
300.0000017
300.0000005
300.0000001
300
300
300
300
300
300
300
300
300
300
300
300
300
300
514.6371257
519.7184195
534.1714674
566.5800016
634.6138538
776.300688
1077.503889
1739.189274
1782.053191
1308.125412
967.1374481
727.8553036
565.1410349
458.4138545
391.1064691
350.3812687
326.770616
313.6637839
306.6985543
303.1547064
301.4277456
300.6212438
300.2600418
300.1047799
300.0406701
300.0152181
300.0054937
300.0019149
300.0006449
300.0002101
300.0000662
300.0000202
300.000006
300.0000017
300.0000005
300.0000001
300
300
300
300
300
300
300
300
300
300
300
300
300
300
514.6371262
519.7184202
534.1714682
566.5800026
634.6138554
776.3006899
1077.50389
1739.18927
1782.053187
1308.125409
967.1374466
727.8553028
565.1410345
458.4138544
391.1064691
350.3812686
326.770616
313.6637839
306.6985543
303.1547064
301.4277456
300.6212438
300.2600418
300.1047799
300.0406701
300.0152181
300.0054937
300.0019149
300.0006449
300.0002101
300.0000662
300.0000202
300.000006
300.0000017
300.0000005
300.0000001
300
300
300
300
300
300
300
300
300
300
300
300
300
300
511.8093062
516.6147586
530.258195
560.6692377
623.8703972
754.2627056
1021.894426
1649.548154
1684.183165
1247.724337
930.1635309
705.5798181
552.013984
450.8831522
386.9161308
348.125807
325.5985387
313.0765084
306.4150652
303.0229254
301.3687614
300.5958205
300.2494866
300.1005569
300.0390411
300.0146118
300.0052759
300.0018393
300.0006196
300.0002018
300.0000636
300.0000194
300.0000057
300.0000017
300.0000005
300.0000001
300
300
300
300
300
300
300
300
300
300
300
300
300
300
506.4503308
510.7886047
523.0739644
550.2191652
605.8861102
718.8753224
944.3292766
1490.960727
1509.411231
1138.481347
862.6773646
664.6468184
527.7695403
436.9208292
379.1237789
343.9217203
323.4097722
311.9781772
305.884236
302.7759213
301.2581127
300.5480958
300.2296607
300.0926208
300.0359784
300.0134716
300.0048661
300.001697
300.0005718
300.0001863
300.0000588
300.0000179
300.0000053
300.0000015
300.0000004
300.0000001
300
300
300
300
300
300
300
300
300
300
300
300
300
300
499.0455631
502.8185992
513.4766959
536.80529
583.9854654
677.482869
860.6782236
1290.896581
1291.104076
999.4581571
775.5835543
611.2600914
495.8935465
418.4496256
368.7653024
338.3119628
320.4803489
310.5046042
305.1706387
302.4433302
301.1089219
300.4836737
300.2028725
300.0818889
300.0318338
300.0119276
300.004311
300.0015042
300.0005071
300.0001653
300.0000521
300.0000159
300.0000047
300.0000014
300.0000004
300.0000001
300
300
300
300
300
300
300
300
300
300
300
300
300
300
490.1647821
493.346555
502.3056464
521.7133865
560.2794925
634.2368386
778.0617528
1078.482068
1064.361045
851.5241712
681.1993145
552.596345
460.4924709
397.7662817
357.0913888
331.9575486
317.1485267
308.8230875
304.3541481
302.0619364
300.9375224
300.4095463
300.1720077
300.0695098
300.0270484
300.0101435
300.0036689
300.001281
300.0004321
300.0001409
300.0000445
300.0000136
300.000004
300.0000012
300.0000003
300.0000001
300
300
300
300
300
300
300
300
300
300
300
300
300
300
480.3828256
483.000144
490.338672
506.055479
536.4603805
592.5998015
700.1368467
878.3713915
856.9906847
712.2589973
590.389691
495.2097708
425.4165405
377.067961
345.3172184
325.5085526
313.7501604
307.1010087
303.5151719
301.6689564
300.760508
300.3328413
300.1400167
300.0566607
300.0220752
300.0082873
300.0030004
300.0010485
300.0003539
300.0001155
300.0000365
300.0000112
300.0000033
300.000001
300.0000003
300.0000001
300
300
300
300
300
300
300
300
300
300
300
300
300
300
470.2224342
472.3413608
478.2674681
490.8253233
514.4629969
557.8114776
638.2547907
705.8998205
685.1200703
593.0691694
510.7509186
443.9320458
393.6168782
358.0888454
334.4236799
319.498943
310.5649345
305.4792908
302.722009
301.2962312
300.5921606
300.259724
300.1094622
300.0443679
300.0173103
300.0065066
300.0023583
300.0008249
300.0002787
300.000091
300.0000288
300.0000088
300.0000026
300.0000008
300.0000002
300.0000001
300
300
300
300
300
300
300
300
300
300
300
300
300
300
460.112072
461.8217798
466.6024452
476.5749642
494.9958417
528.9678747
582.3721926
570.5216711
553.9925022
498.8615983
446.1119381
401.4581348
366.8577535
341.9185516
325.0502248
314.2867103
307.7844798
304.0561613
302.0229253
300.9665152
300.4427807
300.1946753
300.0822186
300.033386
300.0130464
300.0049108
300.0017821
300.0006241
300.0002111
300.000069
300.0000218
300.0000067
300.000002
300.0000006
300.0000002
300
300
300
300
300
300
300
300
300
300
300
300
300
300
300
450.3655868
451.7667615
455.6745148
463.6825416
478.558686
504.5437184
528.5677907
472.0350224
460.6519803
429.2982781
397.0455227
368.5243561
345.7615654
329.0016355
317.4834682
310.0431684
305.5049929
302.8827464
301.443759
300.6922647
300.3181098
300.1402299
300.0593595
300.0241518
300.0094545
300.0035642
300.0012952
300.0004541
300.0001538
300.0000503
300.0000159
300.0000049
300.0000014
300.0000004
300.0000001
300
300
300
300
300
300
300
300
300
300
300
300
300
300
300
441.1823864
442.3633831
445.6021284
452.1820075
464.2907295
481.8181901
481.1927136
405.1566748
398.0073494
380.8816041
361.9364419
344.4468373
330.0747784
319.2660402
311.7177837
306.7808403
303.7397405
301.9685288
300.9902371
300.4765927
300.2197124
300.0971252
300.0412134
300.0168044
300.0065906
300.0024887
300.0009057
300.000318
300.0001078
300.0000353
300.0000112
300.0000034
300.000001
300.0000003
300.0000001
300
300
300
300
300
300
300
300
300
300
300
300
300
300
300
432.6685063
433.6954285
436.450199
442.0769987
451.4029682
458.7026981
442.2330288
362.3957214
358.0095958
348.8823639
338.1039535
327.7549255
319.0154758
312.3086778
307.5517062
304.4021311
302.4429186
301.2926895
300.6531985
300.3155974
300.1459802
300.0647196
300.0275328
300.0112515
300.0044216
300.0016726
300.0006097
300.0002143
300.0000728
300.0000239
300.0000076
300.0000023
300.0000007
300.0000002
300.0000001
300
300
300
300
300
300
300
300
300
300
300
300
300
300
300
424.8475647
425.7512758
428.1617489
432.822063
438.905292
437.4240011
411.6500032
336.3541366
333.5151945
328.6698008
322.672845
316.7295006
311.5912287
307.5758023
304.6865425
302.7513235
301.5361007
300.8170861
300.4147365
300.201166
300.0933665
300.041517
300.0177083
300.0072534
300.0028563
300.0010825
300.0003952
300.0001392
300.0000473
300.0000155
300.0000049
300.0000015
300.0000005
300.0000001
300
300
300
300
300
300
300
300
300
300
300
300
300
300
300
300
417.6980888
418.5139599
420.7133492
424.328614
426.5235356
418.6463395
388.2096705
321.0460386
319.0205471
316.3965324
313.0966452
309.7618374
306.8278154
304.5006226
302.8051639
301.6576954
300.9308456
300.4976264
300.2536947
300.1235271
300.0575263
300.0256565
300.0109723
300.0045049
300.0017777
300.000675
300.0002469
300.0000871
300.0000296
300.0000097
300.0000031
300.000001
300.0000003
300.0000001
300
300
300
300
300
300
300
300
300
300
300
300
300
300
300
300
411.1827684
411.9320706
413.743868
416.1352435
414.6112063
402.2593838
370.1974442
312.2461353
310.6774859
309.1947927
307.3758928
305.5330844
303.8971459
302.5864429
301.6223852
300.9643098
300.5443138
300.2923423
300.1496561
300.0731378
300.0341718
300.0152851
300.0065539
300.0026972
300.0010666
300.0004058
300.0001487
300.0000525
300.0000179
300.0000059
300.0000019
300.0000006
300.0000002
300
300
300
300
300
300
300
300
300
300
300
300
300
300
300
300
300
405.2889569
405.9816487
407.4688385
407.9361582
403.1948004
387.8481591
356.002453
307.2409791
305.9789761
305.0912466
304.0725803
303.0596712
302.1627823
301.4418148
300.908667
300.5425904
300.30761
300.1658821
300.0852338
300.041795
300.0195876
300.0087859
300.0037767
300.0015578
300.0006173
300.0002353
300.0000863
300.0000305
300.0000104
300.0000034
300.0000011
300.0000003
300.0000001
300
300
300
300
300
300
300
300
300
300
300
300
300
300
300
300
300
399.9388038
400.5548546
401.2831575
399.6584555
392.2585685
375.0370098
344.5330309
304.3962065
303.3759781
302.8099473
302.2214373
301.6605588
301.1725007
300.7825092
300.4942857
300.2959992
300.1683305
300.0910578
300.0469295
300.0230787
300.0108453
300.0048769
300.0021013
300.0008686
300.0003449
300.0001317
300.0000484
300.0000172
300.0000059
300.0000019
300.0000006
300.0000002
300.0000001
300
300
300
300
300
300
300
300
300
300
300
300
300
300
300
300
300
395.1188221
395.4742059
394.9895484
391.3438461
381.8474102
363.6266806
335.3544577
302.7703459
301.9494979
301.5661732
301.2101784
300.8922483
300.6251752
300.4156604
300.2622181
300.1570638
300.0894235
300.0484555
300.0250227
300.0123315
300.0058074
300.0026169
300.0011298
300.0004679
300.0001861
300.0000712
300.0000262
300.0000093
300.0000032
300.0000011
300.0000003
300.0000001
300
300
300
300
300
300
300
300
300
300
300
300
300
300
300
300
300
300
390.6189981
390.391526
388.5295524
383.0993609
372.0560712
353.5811154
328.3024904
301.8338397
301.1712449
300.8967492
300.6685129
300.4806608
300.3311636
300.2178054
300.1364901
300.0814467
300.0462866
300.0250682
300.0129498
300.0063876
300.0030119
300.0013592
300.0005877
300.0002438
300.0000971
300.0000372
300.0000137
300.0000049
300.0000017
300.0000006
300.0000002
300.0000001
300
300
300
300
300
300
300
300
300
300
300
300
300
300
300
300
300
300
386.0668271
385.0960042
381.8990077
374.9947709
362.9174695
344.8414891
323.1060484
301.2864931
300.7431973
300.5369832
300.3813491
300.2639433
300.1767397
300.1138728
300.0703379
300.0415629
300.0234696
300.0126606
300.0065258
300.0032157
300.001516
300.0006844
300.0002962
300.000123
300.0000491
300.0000188
300.0000069
300.0000025
300.0000008
300.0000003
300.0000001
300
300
300
300
300
300
300
300
300
300
300
300
300
300
300
300
300
300
300
381.1744234
379.4372699
375.0228434
366.9078594
354.164906
336.9648961
318.8820339
300.9437822
300.4987339
300.3395981
300.2280783
300.150303
300.0966307
300.0602825
300.0363293
300.0210788
300.0117475
300.0062793
300.0032167
300.0015789
300.0007426
300.0003349
300.0001448
300.0000602
300.000024
300.0000092
300.0000034
300.0000012
300.0000004
300.0000001
300
300
300
300
300
300
300
300
300
300
300
300
300
300
300
300
300
300
300
300
375.6559115
373.1712692
367.623928
358.417196
345.2017882
329.7126166
315.0643921
300.7034161
300.3478004
300.2251653
300.1433341
300.0895883
300.0548459
300.0327825
300.0190648
300.0107511
300.0058616
300.0030823
300.0015604
300.0007595
300.0003552
300.0001596
300.0000689
300.0000286
300.0000114
300.0000044
300.0000016
300.0000006
300.0000002
300.0000001
300
300
300
300
300
300
300
300
300
300
300
300
300
300
300
300
300
300
300
300
369.0013612
365.7660002
359.0964613
348.9206525
335.919956
323.0275397
311.5309298
300.5166558
300.2442198
300.1523325
300.092842
300.0553298
300.0322559
300.0183891
300.0102414
300.0055624
300.0029397
300.001508
300.0007491
300.0003596
300.0001665
300.0000743
300.0000319
300.0000132
300.0000053
300.000002
300.0000007
300.0000003
300.0000001
300
300
300
300
300
300
300
300
300
300
300
300
300
300
300
300
300
300
300
300
300
360.0688774
356.0552422
348.3688332
337.8658007
326.4917366
316.6342393
308.1944883
300.3581319
300.1644173
300.1000122
300.0590972
300.0339641
300.0190142
300.0103847
300.00554
300.0028888
300.001472
300.0007321
300.0003546
300.0001669
300.0000761
300.0000336
300.0000143
300.0000059
300.0000023
300.0000009
300.0000003
300.0000001
300
300
300
300
300
300
300
300
300
300
300
300
300
300
300
300
300
300
300
300
300
300
346.2183448
341.5820531
333.7668174
324.8714068
316.828099
310.4133024
305.0538677
300.2155939
300.0962102
300.05746
300.033267
300.0186695
300.0101668
300.005382
300.0027761
300.0013986
300.0006894
300.0003326
300.000157
300.0000723
300.0000324
300.0000141
300.000006
300.0000024
300.000001
300.0000004
300.0000001
300
300
300
300
300
300
300
300
300
300
300
300
300
300
300
300
300
300
300
300
300
300
300
321.819108
318.1055217
313.1752007
309.1720168
306.1526088
303.8080832
301.8465634
300.0760667
300.0321882
300.0188903
300.0108002
300.0059865
300.0032149
300.0016747
300.0008483
300.0004191
300.0002025
300.0000959
300.0000445
300.0000202
300.000009
300.0000039
300.0000016
300.0000007
300.0000003
300.0000001
300
300
300
300
300
300
300
300
300
300
300
300
300
300
300
300
300
300
300
300
300
300
300
300
)
;

boundaryField
{
    lowerWall
    {
        type            fixedValue;
        value           uniform 300;
    }
    atmosphere
    {
        type            zeroGradient;
    }
    rightWall
    {
        type            empty;
    }
    leftWall
    {
        type            empty;
    }
    frontAndBack
    {
        type            fixedValue;
        value           uniform 300;
    }
}


// ************************************************************************* //
