/*--------------------------------*- C++ -*----------------------------------*\
  =========                 |
  \\      /  F ield         | OpenFOAM: The Open Source CFD Toolbox
   \\    /   O peration     | Website:  https://openfoam.org
    \\  /    A nd           | Version:  6
     \\/     M anipulation  |
\*---------------------------------------------------------------------------*/
FoamFile
{
    version     2.0;
    format      ascii;
    class       volVectorField;
    location    "0.12";
    object      U;
}
// * * * * * * * * * * * * * * * * * * * * * * * * * * * * * * * * * * * * * //

dimensions      [0 1 -1 0 0 0 0];

internalField   nonuniform List<vector> 
2500
(
(0 -1.277374176 -0.6785794023)
(0 0.02598868116 -0.3283434906)
(0 0.1897157927 -0.1336302681)
(0 0.3056432556 -0.04923531102)
(0 0.2994648428 0.003405022614)
(0 0.2267837642 0.04873653676)
(0 0.03478303145 0.07028555702)
(0 -0.0009577972484 0.003594043463)
(0 -4.449806921e-14 2.002048139e-17)
(0 -8.850606495e-14 -3.82270526e-16)
(0 -8.725884366e-14 -7.547332575e-16)
(0 -8.540567251e-14 -1.098522472e-15)
(0 -8.290271798e-14 -1.404070808e-15)
(0 -7.98343927e-14 -1.663857984e-15)
(0 -7.629685085e-14 -1.873280181e-15)
(0 -7.239246232e-14 -2.030725606e-15)
(0 -6.822412609e-14 -2.137272884e-15)
(0 -6.389039835e-14 -2.196180612e-15)
(0 -5.94817317e-14 -2.212287747e-15)
(0 -5.507791345e-14 -2.191414902e-15)
(0 -5.074663919e-14 -2.139828269e-15)
(0 -4.654306122e-14 -2.063801104e-15)
(0 -4.251010368e-14 -1.9692855e-15)
(0 -3.867932728e-14 -1.861691023e-15)
(0 -3.507214305e-14 -1.745756847e-15)
(0 -3.170120632e-14 -1.625499247e-15)
(0 -2.857185916e-14 -1.504215376e-15)
(0 -2.568352658e-14 -1.384525694e-15)
(0 -2.303100383e-14 -1.268440196e-15)
(0 -2.060559908e-14 -1.15743674e-15)
(0 -1.839611587e-14 -1.052542885e-15)
(0 -1.638967424e-14 -9.544153416e-16)
(0 -1.457237893e-14 -8.63413347e-16)
(0 -1.292984903e-14 -7.796639579e-16)
(0 -1.144762577e-14 -7.031184501e-16)
(0 -1.011147652e-14 -6.335998565e-16)
(0 -8.907611943e-15 -5.708421843e-16)
(0 -7.822832286e-15 -5.145221425e-16)
(0 -6.844616685e-15 -4.642843453e-16)
(0 -5.961167657e-15 -4.197609756e-16)
(0 -5.161420849e-15 -3.8058685e-16)
(0 -4.435028418e-15 -3.464107433e-16)
(0 -3.772322744e-15 -3.169037288e-16)
(0 -3.164265807e-15 -2.917651902e-16)
(0 -2.602388298e-15 -2.707270694e-16)
(0 -2.078721504e-15 -2.535568615e-16)
(0 -1.585723875e-15 -2.40059931e-16)
(0 -1.116202645e-15 -2.300821819e-16)
(0 -6.632267351e-16 -2.235161639e-16)
(0 -2.200110853e-16 -2.203231154e-16)
(0 -1.206439517 -1.112745649)
(0 -0.5867723231 -0.7247370535)
(0 -0.203190453 -0.2905486497)
(0 0.009195215439 -0.0498843127)
(0 0.04829421026 0.05628551068)
(0 0.07097965566 0.1360747926)
(0 -0.01349121965 0.1642967684)
(0 -0.0001834494887 0.007072104929)
(0 -4.488818522e-14 3.405185466e-17)
(0 -8.927437434e-14 -1.166420104e-15)
(0 -8.79750956e-14 -2.292831823e-15)
(0 -8.605501006e-14 -3.333841332e-15)
(0 -8.34680535e-14 -4.258011758e-15)
(0 -8.030360207e-14 -5.041985974e-15)
(0 -7.666371847e-14 -5.671875017e-15)
(0 -7.265645502e-14 -6.143144231e-15)
(0 -6.83895811e-14 -6.459539324e-15)
(0 -6.396541322e-14 -6.631435236e-15)
(0 -5.947696599e-14 -6.673947205e-15)
(0 -5.500545397e-14 -6.60507297e-15)
(0 -5.06190254e-14 -6.44404954e-15)
(0 -4.637251845e-14 -6.210024917e-15)
(0 -4.23079936e-14 -5.921076795e-15)
(0 -3.845579863e-14 -5.593561819e-15)
(0 -3.483595128e-14 -5.241750103e-15)
(0 -3.145966485e-14 -4.877686782e-15)
(0 -2.833088561e-14 -4.511220943e-15)
(0 -2.54477514e-14 -4.150147793e-15)
(0 -2.280391488e-14 -3.800419028e-15)
(0 -2.038970177e-14 -3.466386412e-15)
(0 -1.819309447e-14 -3.151053182e-15)
(0 -1.62005447e-14 -2.856316097e-15)
(0 -1.439762755e-14 -2.583187585e-15)
(0 -1.276955414e-14 -2.331992413e-15)
(0 -1.130156167e-14 -2.102536865e-15)
(0 -9.979200252e-15 -1.894250819e-15)
(0 -8.788534229e-15 -1.706304563e-15)
(0 -7.716274447e-15 -1.537703018e-15)
(0 -6.749855518e-15 -1.387360357e-15)
(0 -5.877470162e-15 -1.254158061e-15)
(0 -5.088070617e-15 -1.136989253e-15)
(0 -4.371345296e-15 -1.034791914e-15)
(0 -3.717677191e-15 -9.465732518e-16)
(0 -3.118089147e-15 -8.714271678e-16)
(0 -2.56417997e-15 -8.085464907e-16)
(0 -2.048054365e-15 -7.572313881e-16)
(0 -1.562249196e-15 -7.168952699e-16)
(0 -1.099658878e-15 -6.870696891e-16)
(0 -6.534676686e-16 -6.674107648e-16)
(0 -2.168180367e-16 -6.577135639e-16)
(0 -1.195454731 -1.365055006)
(0 -0.9110149769 -1.176406763)
(0 -0.4589524981 -0.6683017175)
(0 -0.1504974919 -0.2113708723)
(0 -0.05821985415 0.01498347028)
(0 -0.0424666475 0.1372610474)
(0 -0.02355768699 0.1638303196)
(0 0.0002670010266 -0.0006581927793)
(0 -4.566815928e-14 -6.860862257e-18)
(0 -9.081649626e-14 -1.999499428e-15)
(0 -8.942626488e-14 -3.916217661e-15)
(0 -8.737085244e-14 -5.685991447e-15)
(0 -8.461086263e-14 -7.252140872e-15)
(0 -8.124825596e-14 -8.574198136e-15)
(0 -7.739800911e-14 -9.629100473e-15)
(0 -7.318012663e-14 -1.041046235e-14)
(0 -6.87124171e-14 -1.092634599e-14)
(0 -6.410480623e-14 -1.119613022e-14)
(0 -5.945536943e-14 -1.124706347e-14)
(0 -5.484801578e-14 -1.11109633e-14)
(0 -5.035159114e-14 -1.082136564e-14)
(0 -4.602008848e-14 -1.041127462e-14)
(0 -4.189364058e-14 -9.911544486e-15)
(0 -3.800000059e-14 -9.349844741e-15)
(0 -3.435626802e-14 -8.75011517e-15)
(0 -3.097067716e-14 -8.132401107e-15)
(0 -2.784432017e-14 -7.512961618e-15)
(0 -2.497272467e-14 -6.904556466e-15)
(0 -2.234724245e-14 -6.316835586e-15)
(0 -1.995623323e-14 -5.756773329e-15)
(0 -1.778604555e-14 -5.229106609e-15)
(0 -1.582180864e-14 -4.736750115e-15)
(0 -1.404805525e-14 -4.281172805e-15)
(0 -1.244919831e-14 -3.862727971e-15)
(0 -1.100988418e-14 -3.480934822e-15)
(0 -9.715244216e-15 -3.134713252e-15)
(0 -8.551064142e-15 -2.822575593e-15)
(0 -7.503888079e-15 -2.542780336e-15)
(0 -6.561071729e-15 -2.293453154e-15)
(0 -5.710796553e-15 -2.072680474e-15)
(0 -4.942054703e-15 -1.878580498e-15)
(0 -4.244612417e-15 -1.70935604e-15)
(0 -3.608957997e-15 -1.563332962e-15)
(0 -3.026239046e-15 -1.438987448e-15)
(0 -2.488192519e-15 -1.334964794e-15)
(0 -1.987070283e-15 -1.25009193e-15)
(0 -1.515562176e-15 -1.183385399e-15)
(0 -1.06671814e-15 -1.134055946e-15)
(0 -6.338706099e-16 -1.101509384e-15)
(0 -2.103138843e-16 -1.08533761e-15)
(0 -1.088027079 -1.408415378)
(0 -1.109584033 -1.482872351)
(0 -0.7137863986 -1.066400728)
(0 -0.330070951 -0.4866865966)
(0 -0.05375413164 -0.02013440766)
(0 -0.07227463896 0.09726059045)
(0 -0.007850859191 0.1119090523)
(0 0.0002188863724 -0.005353439773)
(0 -4.68874951e-14 -3.188059148e-17)
(0 -9.319012252e-14 -2.909127672e-15)
(0 -9.166158762e-14 -5.686440718e-15)
(0 -8.939093327e-14 -8.241673272e-15)
(0 -8.635626019e-14 -1.049026048e-14)
(0 -8.268056167e-14 -1.237346416e-14)
(0 -7.849998269e-14 -1.385977348e-14)
(0 -7.395370053e-14 -1.494317853e-14)
(0 -6.917524897e-14 -1.563918619e-14)
(0 -6.42861307e-14 -1.597962403e-14)
(0 -5.939179906e-14 -1.600717245e-14)
(0 -5.457975614e-14 -1.577031894e-14)
(0 -4.991933672e-14 -1.531914838e-14)
(0 -4.54626973e-14 -1.470213932e-14)
(0 -4.124656372e-14 -1.39639579e-14)
(0 -3.729436931e-14 -1.314413201e-14)
(0 -3.361850765e-14 -1.227643637e-14)
(0 -3.02225113e-14 -1.138880881e-14)
(0 -2.710304097e-14 -1.050363179e-14)
(0 -2.425162537e-14 -9.638240449e-15)
(0 -2.165613174e-14 -8.805548915e-15)
(0 -1.930197279e-14 -8.01471613e-15)
(0 -1.717307126e-14 -7.271797539e-15)
(0 -1.525261089e-14 -6.580349314e-15)
(0 -1.352360541e-14 -5.941966893e-15)
(0 -1.196931615e-14 -5.35675049e-15)
(0 -1.057354695e-14 -4.823697467e-15)
(0 -9.320841023e-15 -4.341025945e-15)
(0 -8.196601313e-15 -3.906436556e-15)
(0 -7.187152008e-15 -3.517320319e-15)
(0 -6.279755656e-15 -3.1709208e-15)
(0 -5.462597506e-15 -2.86445833e-15)
(0 -4.724746183e-15 -2.595223343e-15)
(0 -4.05609776e-15 -2.360645024e-15)
(0 -3.447308598e-15 -2.158340606e-15)
(0 -2.889720979e-15 -1.986149749e-15)
(0 -2.375284452e-15 -1.842157693e-15)
(0 -1.89647497e-15 -1.724710137e-15)
(0 -1.446213212e-15 -1.632422165e-15)
(0 -1.017782863e-15 -1.564182876e-15)
(0 -6.047493325e-16 -1.519156707e-15)
(0 -2.006462629e-16 -1.496782299e-15)
(0 -0.8919716075 -1.289065256)
(0 -1.167899543 -1.617782782)
(0 -0.9209072626 -1.427506443)
(0 -0.5531430107 -0.8810624342)
(0 -0.1374869134 -0.2265919525)
(0 -0.02440927016 0.06875070234)
(0 -0.006210934981 0.06798553482)
(0 8.790761295e-05 -0.006680922316)
(0 -4.857711413e-14 -4.111180062e-17)
(0 -9.649232884e-14 -3.935563051e-15)
(0 -9.475881048e-14 -7.678671559e-15)
(0 -9.21746722e-14 -1.11038705e-14)
(0 -8.874265352e-14 -1.409362629e-14)
(0 -8.461776896e-14 -1.656949555e-14)
(0 -7.996772348e-14 -1.849324138e-14)
(0 -7.495953934e-14 -1.986320842e-14)
(0 -6.974886259e-14 -2.070753959e-14)
(0 -6.447279249e-14 -2.107597557e-14)
(0 -5.924606435e-14 -2.103167248e-14)
(0 -5.415999171e-14 -2.064399653e-14)
(0 -4.928341152e-14 -1.99827853e-14)
(0 -4.4664898e-14 -1.911419844e-14)
(0 -4.033563327e-14 -1.809804073e-14)
(0 -3.631247905e-14 -1.698631415e-14)
(0 -3.260094482e-14 -1.5822713e-14)
(0 -2.919787258e-14 -1.464278674e-14)
(0 -2.609375181e-14 -1.347453373e-14)
(0 -2.327464179e-14 -1.233923855e-14)
(0 -2.072371813e-14 -1.125241398e-14)
(0 -1.842248186e-14 -1.022475203e-14)
(0 -1.635167874e-14 -9.263022535e-15)
(0 -1.449197799e-14 -8.370884658e-15)
(0 -1.282445643e-14 -7.549594798e-15)
(0 -1.133092889e-14 -6.798607708e-15)
(0 -9.994159633e-15 -6.116075248e-15)
(0 -8.797983305e-15 -5.499251978e-15)
(0 -7.727358515e-15 -4.944818915e-15)
(0 -6.768372323e-15 -4.449137404e-15)
(0 -5.90820974e-15 -4.008444653e-15)
(0 -5.135099096e-15 -3.619001531e-15)
(0 -4.438241396e-15 -3.277202018e-15)
(0 -3.80772968e-15 -2.979652363e-15)
(0 -3.234462723e-15 -2.723226767e-15)
(0 -2.710056133e-15 -2.5051052e-15)
(0 -2.226752907e-15 -2.322797949e-15)
(0 -1.777334755e-15 -2.174160553e-15)
(0 -1.355034915e-15 -2.057402e-15)
(0 -9.53452682e-16 -1.971088411e-15)
(0 -5.664700328e-16 -1.914143946e-15)
(0 -1.879394759e-16 -1.885850667e-15)
(0 -0.6275351126 -1.042577348)
(0 -1.087704321 -1.55568953)
(0 -1.038109053 -1.656841805)
(0 -0.7715136132 -1.285388328)
(0 -0.3249528483 -0.5866382424)
(0 0.01112939943 0.008039371307)
(0 -0.007579312429 0.0725405187)
(0 -5.356291449e-05 -0.00930758976)
(0 -5.080512445e-14 -5.675941328e-17)
(0 -1.008551853e-13 -5.130320523e-15)
(0 -9.882989507e-14 -9.988708889e-15)
(0 -9.5805888e-14 -1.440131573e-14)
(0 -9.182188523e-14 -1.82106777e-14)
(0 -8.708017677e-14 -2.131746752e-14)
(0 -8.179369556e-14 -2.368033908e-14)
(0 -7.616799874e-14 -2.530876611e-14)
(0 -7.038801612e-14 -2.625172098e-14)
(0 -6.461026359e-14 -2.658503497e-14)
(0 -5.895982002e-14 -2.639954283e-14)
(0 -5.353086896e-14 -2.579122758e-14)
(0 -4.838953863e-14 -2.485382942e-14)
(0 -4.357795273e-14 -2.367386723e-14)
(0 -3.911867943e-14 -2.232773375e-14)
(0 -3.501904158e-14 -2.088041135e-14)
(0 -3.127498023e-14 -1.938535228e-14)
(0 -2.787433202e-14 -1.788512473e-14)
(0 -2.479949278e-14 -1.641250645e-14)
(0 -2.202950562e-14 -1.499178987e-14)
(0 -1.954164522e-14 -1.364013578e-14)
(0 -1.731258134e-14 -1.236887072e-14)
(0 -1.531920389e-14 -1.118466764e-14)
(0 -1.353918316e-14 -1.009058068e-14)
(0 -1.195132846e-14 -9.086926127e-15)
(0 -1.05357966e-14 -8.172014449e-15)
(0 -9.274191222e-15 -7.342746363e-15)
(0 -8.14958469e-15 -6.595089048e-15)
(0 -7.146486739e-15 -5.924449979e-15)
(0 -6.250777746e-15 -5.325965239e-15)
(0 -5.449619783e-15 -4.794717828e-15)
(0 -4.731354871e-15 -4.32589967e-15)
(0 -4.085397016e-15 -3.914929095e-15)
(0 -3.502122509e-15 -3.557533708e-15)
(0 -2.972761434e-15 -3.24980683e-15)
(0 -2.489292161e-15 -2.988244182e-15)
(0 -2.044339806e-15 -2.769766149e-15)
(0 -1.631079021e-15 -2.591729897e-15)
(0 -1.24314107e-15 -2.451934626e-15)
(0 -8.745248098e-16 -2.34862257e-15)
(0 -5.195115886e-16 -2.280477732e-15)
(0 -1.72352984e-16 -2.246624019e-15)
(0 -0.3340611291 -0.7243886516)
(0 -0.8849307273 -1.318778025)
(0 -1.04173766 -1.712435996)
(0 -0.9306419395 -1.612610019)
(0 -0.5361687973 -1.00130335)
(0 -0.101859491 -0.2190396416)
(0 -0.002035711724 0.07170938891)
(0 -0.0004309174474 -0.01453632251)
(0 -5.367575806e-14 -9.056038665e-17)
(0 -1.064641984e-13 -6.564409325e-15)
(0 -1.040298057e-13 -1.274438094e-14)
(0 -1.00396641e-13 -1.830171574e-14)
(0 -9.56588053e-14 -2.303001167e-14)
(0 -9.008743033e-14 -2.680910387e-14)
(0 -8.395902207e-14 -2.960168397e-14)
(0 -7.753092124e-14 -3.143966176e-14)
(0 -7.102513146e-14 -3.240546832e-14)
(0 -6.462061434e-14 -3.261287482e-14)
(0 -5.845225696e-14 -3.219024756e-14)
(0 -5.26142783e-14 -3.126757773e-14)
(0 -4.716605116e-14 -2.99674883e-14)
(0 -4.213880233e-14 -2.839976444e-14)
(0 -3.75421774e-14 -2.665867347e-14)
(0 -3.337009758e-14 -2.482229978e-14)
(0 -2.96056582e-14 -2.295320912e-14)
(0 -2.622502675e-14 -2.109989606e-14)
(0 -2.320041695e-14 -1.929861329e-14)
(0 -2.050227112e-14 -1.757530804e-14)
(0 -1.810079898e-14 -1.594749199e-14)
(0 -1.596701371e-14 -1.442594572e-14)
(0 -1.40733887e-14 -1.301621048e-14)
(0 -1.239423648e-14 -1.171985453e-14)
(0 -1.090589019e-14 -1.053552182e-14)
(0 -9.586749122e-15 -9.459782458e-15)
(0 -8.417234232e-15 -8.487809698e-15)
(0 -7.379686921e-15 -7.613909424e-15)
(0 -6.458234706e-15 -6.831927173e-15)
(0 -5.638640172e-15 -6.135555391e-15)
(0 -4.908144172e-15 -5.518560809e-15)
(0 -4.255310363e-15 -4.974948869e-15)
(0 -3.669875434e-15 -4.499079343e-15)
(0 -3.142607415e-15 -4.085744716e-15)
(0 -2.665173197e-15 -3.730220724e-15)
(0 -2.230015452e-15 -3.428296543e-15)
(0 -1.830238622e-15 -3.176290535e-15)
(0 -1.459503232e-15 -2.971056215e-15)
(0 -1.111927588e-15 -2.809981994e-15)
(0 -7.819957875e-16 -2.69098747e-15)
(0 -4.644714813e-16 -2.612518353e-15)
(0 -1.540857628e-16 -2.573541581e-15)
(0 -0.06636137685 -0.3957230755)
(0 -0.5927677421 -0.9536994976)
(0 -0.9246991314 -1.57880894)
(0 -0.9993209836 -1.805009242)
(0 -0.7236348179 -1.413566421)
(0 -0.2623997904 -0.5735873257)
(0 0.003461351525 0.02265577969)
(0 -0.0007710677111 -0.02159138812)
(0 -5.733559879e-14 -1.472504277e-16)
(0 -1.135731332e-13 -8.339257237e-15)
(0 -1.105672015e-13 -1.612243715e-14)
(0 -1.060915187e-13 -2.303072427e-14)
(0 -1.003292734e-13 -2.879813552e-14)
(0 -9.365184906e-14 -3.328690655e-14)
(0 -8.642425344e-14 -3.647737874e-14)
(0 -7.897178309e-14 -3.844257201e-14)
(0 -7.156122918e-14 -3.931754277e-14)
(0 -6.439504283e-14 -3.927074034e-14)
(0 -5.761452293e-14 -3.848103173e-14)
(0 -5.13081097e-14 -3.712141175e-14)
(0 -4.552172534e-14 -3.534885928e-14)
(0 -4.026913791e-14 -3.329910979e-14)
(0 -3.554121478e-14 -3.108497365e-14)
(0 -3.131357723e-14 -2.879697572e-14)
(0 -2.755257651e-14 -2.650534974e-14)
(0 -2.42197362e-14 -2.426268881e-14)
(0 -2.127490476e-14 -2.2106785e-14)
(0 -1.867838433e-14 -2.006337088e-14)
(0 -1.63922829e-14 -1.814860486e-14)
(0 -1.438129983e-14 -1.637122979e-14)
(0 -1.26131127e-14 -1.473438889e-14)
(0 -1.10584945e-14 -1.323711574e-14)
(0 -9.691256387e-15 -1.187553139e-14)
(0 -8.488084483e-15 -1.064378845e-14)
(0 -7.428318188e-15 -9.534803099e-15)
(0 -6.493702164e-15 -8.540812791e-15)
(0 -5.668132707e-15 -7.653793776e-15)
(0 -4.937411382e-15 -6.865767402e-15)
(0 -4.289013261e-15 -6.169019627e-15)
(0 -3.711873405e-15 -5.556253743e-15)
(0 -3.196192862e-15 -5.020692527e-15)
(0 -2.733263891e-15 -4.556142769e-15)
(0 -2.315313261e-15 -4.15703241e-15)
(0 -1.935361972e-15 -3.818428298e-15)
(0 -1.587099478e-15 -3.536040799e-15)
(0 -1.264770479e-15 -3.306220014e-15)
(0 -9.630723257e-16 -3.125947265e-15)
(0 -6.770611697e-16 -2.992824588e-15)
(0 -4.020656997e-16 -2.905064269e-15)
(0 -1.33376212e-16 -2.861479917e-15)
(0 0.1081837631 -0.1204502803)
(0 -0.2679324349 -0.5391955323)
(0 -0.6999274347 -1.275163956)
(0 -0.959335409 -1.820690551)
(0 -0.8556682048 -1.755561953)
(0 -0.4303815108 -0.9977840155)
(0 2.764332607e-05 -0.09077738956)
(0 -0.0002324716568 -0.02439570158)
(0 -6.198567755e-14 -1.981200919e-16)
(0 -1.22540112e-13 -1.060622081e-14)
(0 -1.187212727e-13 -2.037482511e-14)
(0 -1.130723394e-13 -2.889996837e-14)
(0 -1.059149876e-13 -3.584430968e-14)
(0 -9.776667355e-14 -4.106254499e-14)
(0 -8.911468754e-14 -4.457804235e-14)
(0 -8.037108528e-14 -4.653553782e-14)
(0 -7.185329978e-14 -4.71513383e-14)
(0 -6.378410329e-14 -4.667154135e-14)
(0 -5.630292838e-14 -4.534180734e-14)
(0 -4.948210585e-14 -4.338828454e-14)
(0 -4.334374919e-14 -4.100754198e-14)
(0 -3.78749167e-14 -3.836295334e-14)
(0 -3.304004333e-14 -3.558523721e-14)
(0 -2.879047367e-14 -3.277536808e-14)
(0 -2.507137129e-14 -3.000859952e-14)
(0 -2.182646201e-14 -2.733878494e-14)
(0 -1.900109901e-14 -2.480251512e-14)
(0 -1.654409098e-14 -2.242282291e-14)
(0 -1.440865789e-14 -2.021235502e-14)
(0 -1.255279773e-14 -1.817600047e-14)
(0 -1.093927466e-14 -1.631301434e-14)
(0 -9.535378984e-15 -1.461869826e-14)
(0 -8.3125629e-15 -1.308570597e-14)
(0 -7.246020835e-15 -1.170504051e-14)
(0 -6.314258574e-15 -1.046680302e-14)
(0 -5.498677599e-15 -9.360744902e-15)
(0 -4.783189316e-15 -8.376666677e-15)
(0 -4.153866023e-15 -7.50469899e-15)
(0 -3.598630512e-15 -6.73549422e-15)
(0 -3.106983263e-15 -6.06035129e-15)
(0 -2.669764461e-15 -5.471291408e-15)
(0 -2.278947298e-15 -4.961098491e-15)
(0 -1.927458725e-15 -4.523334888e-15)
(0 -1.609023841e-15 -4.152340498e-15)
(0 -1.318030338e-15 -3.843221447e-15)
(0 -1.049409698e-15 -3.591832924e-15)
(0 -7.985321613e-16 -3.394759662e-15)
(0 -5.611127909e-16 -3.249296584e-15)
(0 -3.331268106e-16 -3.153431485e-15)
(0 -1.105014109e-16 -3.105831069e-15)
(0 0.1552418336 -0.01526852107)
(0 0.00723701817 -0.1839265448)
(0 -0.4087780799 -0.8603974381)
(0 -0.8145593647 -1.647138203)
(0 -0.9103629131 -1.963795834)
(0 -0.5864097861 -1.442362318)
(0 -0.05077198933 -0.3776259683)
(0 0.002072886435 -0.02227641795)
(0 -6.789686242e-14 -4.946930044e-16)
(0 -1.338892876e-13 -1.362316023e-14)
(0 -1.28860949e-13 -2.586964923e-14)
(0 -1.215610033e-13 -3.634905543e-14)
(0 -1.1249185e-13 -4.461574739e-14)
(0 -1.023855817e-13 -5.054031484e-14)
(0 -9.189724627e-14 -5.423634999e-14)
(0 -8.154507903e-14 -5.597004951e-14)
(0 -7.169723271e-14 -5.608073326e-14)
(0 -6.258551186e-14 -5.492237688e-14)
(0 -5.433126611e-14 -5.282651957e-14)
(0 -4.697384434e-14 -5.008254307e-14)
(0 -4.049639414e-14 -4.693023409e-14)
(0 -3.484683315e-14 -4.356007322e-14)
(0 -2.995362952e-14 -4.011778254e-14)
(0 -2.573693953e-14 -3.671076706e-14)
(0 -2.211599336e-14 -3.341498182e-14)
(0 -1.90136518e-14 -3.028140431e-14)
(0 -1.635894273e-14 -2.734171979e-14)
(0 -1.408822422e-14 -2.461308966e-14)
(0 -1.214546045e-14 -2.210202025e-14)
(0 -1.048195915e-14 -1.980742273e-14)
(0 -9.055810491e-15 -1.772298325e-14)
(0 -7.831186121e-15 -1.583896551e-14)
(0 -6.777598631e-15 -1.414355848e-14)
(0 -5.869181534e-15 -1.26238666e-14)
(0 -5.084022583e-15 -1.126662359e-14)
(0 -4.403565822e-15 -1.005869573e-14)
(0 -3.812086795e-15 -8.987426695e-15)
(0 -3.296238925e-15 -8.040864694e-15)
(0 -2.844665561e-15 -7.207903626e-15)
(0 -2.447670594e-15 -6.478362241e-15)
(0 -2.096940064e-15 -5.843019697e-15)
(0 -1.78530737e-15 -5.293621277e-15)
(0 -1.506555268e-15 -4.822864584e-15)
(0 -1.255248531e-15 -4.424373877e-15)
(0 -1.026591904e-15 -4.092668178e-15)
(0 -8.16308695e-16 -3.82312728e-15)
(0 -6.205359852e-16 -3.611958667e-15)
(0 -4.357329927e-16 -3.456167458e-15)
(0 -2.586001848e-16 -3.353530925e-15)
(0 -8.577579547e-17 -3.302578612e-15)
(0 0.1681711686 0.01500558925)
(0 0.159362824 0.01444714537)
(0 -0.1122589349 -0.4266449687)
(0 -0.5891796212 -1.307435852)
(0 -0.8806145944 -1.99282624)
(0 -0.7216714552 -1.832621706)
(0 -0.1769026384 -0.7909289285)
(0 0.005440025251 -0.0379201676)
(0 -7.521813936e-14 -1.063663529e-15)
(0 -1.481081795e-13 -1.764796687e-14)
(0 -1.414471679e-13 -3.312952731e-14)
(0 -1.318184375e-13 -4.600927728e-14)
(0 -1.20106247e-13 -5.572809545e-14)
(0 -1.073872761e-13 -6.224585398e-14)
(0 -9.454442221e-14 -6.585662725e-14)
(0 -8.221546856e-14 -6.702750327e-14)
(0 -7.080562714e-14 -6.627928016e-14)
(0 -6.05298896e-14 -6.411092387e-14)
(0 -5.146309457e-14 -6.095959885e-14)
(0 -4.358582038e-14 -5.718538059e-14)
(0 -3.682127934e-14 -5.307100197e-14)
(0 -3.106246515e-14 -4.88295146e-14)
(0 -2.619073718e-14 -4.461521008e-14)
(0 -2.208767296e-14 -4.053506087e-14)
(0 -1.864200854e-14 -3.665925307e-14)
(0 -1.575319998e-14 -3.303020353e-14)
(0 -1.333278436e-14 -2.966992356e-14)
(0 -1.130439144e-14 -2.658583388e-14)
(0 -9.602990968e-15 -2.377523995e-14)
(0 -8.173760731e-15 -2.122870433e-14)
(0 -6.970817429e-15 -1.893254102e-14)
(0 -5.955954222e-15 -1.687062771e-14)
(0 -5.097463994e-15 -1.502569797e-14)
(0 -4.369085937e-15 -1.338024342e-14)
(0 -3.749087706e-15 -1.191712687e-14)
(0 -3.219480708e-15 -1.061998448e-14)
(0 -2.765358279e-15 -9.473475713e-15)
(0 -2.374342954e-15 -8.463425108e-15)
(0 -2.036128059e-15 -7.576888813e-15)
(0 -1.742099335e-15 -6.802169788e-15)
(0 -1.485023496e-15 -6.128799368e-15)
(0 -1.258792185e-15 -5.547497967e-15)
(0 -1.058211326e-15 -5.050124085e-15)
(0 -8.788274349e-16 -4.629618209e-15)
(0 -7.167837409e-16 -4.279946229e-15)
(0 -5.687001871e-16 -3.996045624e-15)
(0 -4.315723387e-16 -3.773776664e-15)
(0 -3.026850492e-16 -3.609880149e-15)
(0 -1.795379648e-16 -3.501942707e-15)
(0 -5.954909758e-17 -3.448370311e-15)
(0 0.1864550945 0.0112506584)
(0 0.1985224967 0.06204999701)
(0 0.1165369919 -0.08546685923)
(0 -0.3193966167 -0.8588565388)
(0 -0.769646755 -1.825277464)
(0 -0.8352561475 -2.109139852)
(0 -0.3706116573 -1.266504391)
(0 0.007699222532 -0.1158804919)
(0 -8.452101283e-14 -7.751903787e-16)
(0 -1.663047357e-13 -2.299022568e-14)
(0 -1.572222595e-13 -4.298730047e-14)
(0 -1.441595714e-13 -5.882783516e-14)
(0 -1.287284267e-13 -7.003983187e-14)
(0 -1.125141135e-13 -7.685751245e-14)
(0 -9.667889556e-14 -7.991653219e-14)
(0 -8.196773195e-14 -8.000416443e-14)
(0 -6.878065332e-14 -7.789826864e-14)
(0 -5.726583055e-14 -7.428282469e-14)
(0 -4.740572283e-14 -6.971595793e-14)
(0 -3.908524745e-14 -6.462872685e-14)
(0 -3.214052816e-14 -5.933917247e-14)
(0 -2.639104126e-14 -5.407200989e-14)
(0 -2.165917579e-14 -4.897866643e-14)
(0 -1.778098253e-14 -4.415515231e-14)
(0 -1.461113603e-14 -3.965686831e-14)
(0 -1.202432229e-14 -3.551030637e-14)
(0 -9.914573081e-15 -3.172198786e-14)
(0 -8.193540609e-15 -2.828511632e-14)
(0 -6.788330894e-15 -2.518442282e-14)
(0 -5.639260223e-15 -2.239962602e-14)
(0 -4.697733871e-15 -1.990785479e-14)
(0 -3.924343067e-15 -1.768530779e-14)
(0 -3.287214341e-15 -1.570836067e-14)
(0 -2.76061043e-15 -1.395427862e-14)
(0 -2.323763651e-15 -1.240165112e-14)
(0 -1.959914669e-15 -1.103063406e-14)
(0 -1.655527418e-15 -9.823060671e-15)
(0 -1.399652025e-15 -8.762465239e-15)
(0 -1.183410241e-15 -7.834050855e-15)
(0 -9.995811486e-16 -7.024623048e-15)
(0 -8.422682429e-16 -6.322504596e-15)
(0 -7.066320873e-16 -5.717441992e-15)
(0 -5.88675511e-16 -5.200510717e-15)
(0 -4.850706747e-16 -4.764024051e-15)
(0 -3.93019318e-16 -4.401448553e-15)
(0 -3.101391301e-16 -4.10732818e-15)
(0 -2.343705107e-16 -3.877218246e-15)
(0 -1.63899035e-16 -3.707629929e-15)
(0 -9.709034603e-17 -3.595985689e-15)
(0 -3.220339949e-17 -3.540585778e-15)
(0 0.2188384034 0.01277723178)
(0 0.2131764877 0.06002274639)
(0 0.2248389501 0.081202129)
(0 -0.04597040592 -0.3876252162)
(0 -0.5756892504 -1.470020178)
(0 -0.9151426349 -2.220916965)
(0 -0.6124220512 -1.750805972)
(0 0.005807830003 -0.3088832134)
(0 -9.759654338e-14 -1.700593741e-15)
(0 -1.91089828e-13 -3.110042982e-14)
(0 -1.772847774e-13 -5.699755369e-14)
(0 -1.588709689e-13 -7.627140424e-14)
(0 -1.381359243e-13 -8.874387624e-14)
(0 -1.172639765e-13 -9.522707152e-14)
(0 -9.76910742e-14 -9.694786974e-14)
(0 -8.0197205e-14 -9.517482163e-14)
(0 -6.50842874e-14 -9.102743369e-14)
(0 -5.234757889e-14 -8.540678322e-14)
(0 -4.180899672e-14 -7.899324627e-14)
(0 -3.320903492e-14 -7.227486307e-14)
(0 -2.626456238e-14 -6.558531774e-14)
(0 -2.070195911e-14 -5.914096332e-14)
(0 -1.62738796e-14 -5.30724967e-14)
(0 -1.276587484e-14 -4.745015839e-14)
(0 -9.997162604e-15 -4.230286157e-14)
(0 -7.818319525e-15 -3.76322326e-14)
(0 -6.107594307e-15 -3.342264778e-14)
(0 -4.766826404e-15 -2.964824602e-14)
(0 -3.717500673e-15 -2.627772218e-14)
(0 -2.897192694e-15 -2.327752706e-14)
(0 -2.256499191e-15 -2.061394366e-14)
(0 -1.756460108e-15 -1.825438378e-14)
(0 -1.366434828e-15 -1.616815194e-14)
(0 -1.062376386e-15 -1.432685169e-14)
(0 -8.25443148e-16 -1.27045568e-14)
(0 -6.408902591e-16 -1.127783172e-14)
(0 -4.971894557e-16 -1.002565958e-14)
(0 -3.853331375e-16 -8.929316568e-15)
(0 -2.982858684e-16 -7.972218992e-15)
(0 -2.305530752e-16 -7.139760097e-15)
(0 -1.778424402e-16 -6.419147589e-15)
(0 -1.367983068e-16 -5.79924876e-15)
(0 -1.047933852e-16 -5.270447234e-15)
(0 -7.976527062e-17 -4.824513597e-15)
(0 -6.008786946e-17 -4.454490953e-15)
(0 -4.446987997e-17 -4.154595773e-15)
(0 -3.187408818e-17 -3.920133909e-15)
(0 -2.145249234e-17 -3.747431497e-15)
(0 -1.249381347e-17 -3.633780318e-15)
(0 -4.149186363e-18 -3.577397236e-15)
(0 0.2570708438 0.01846269126)
(0 0.2446318085 0.0571429555)
(0 0.2608569848 0.1304232823)
(0 0.1794541442 -0.0003002537452)
(0 -0.2927230054 -0.9634335573)
(0 -0.9217613923 -2.120947141)
(0 -0.8627758496 -2.188712341)
(0 -0.003509488398 -0.6667178861)
(0 -1.146542246e-13 -4.900208908e-15)
(0 -2.232557369e-13 -4.406063177e-14)
(0 -2.023932339e-13 -7.762516386e-14)
(0 -1.75905894e-13 -1.005114068e-13)
(0 -1.47684094e-13 -1.134351188e-13)
(0 -1.20718107e-13 -1.183588146e-13)
(0 -9.662664567e-14 -1.174737955e-13)
(0 -7.604729589e-14 -1.127209088e-13)
(0 -5.901261492e-14 -1.056309638e-13)
(0 -4.523164314e-14 -9.732458956e-14)
(0 -3.427380267e-14 -8.857615261e-14)
(0 -2.567731893e-14 -7.989274822e-14)
(0 -1.900662841e-14 -7.158670061e-14)
(0 -1.387822023e-14 -6.383433149e-14)
(0 -9.96837086e-15 -5.672040557e-14)
(0 -7.011347395e-15 -5.027025968e-14)
(0 -4.793210238e-15 -4.447227349e-14)
(0 -3.144108499e-15 -3.929316612e-14)
(0 -1.930586496e-15 -3.468815211e-14)
(0 -1.048615008e-15 -3.060750924e-14)
(0 -4.176119375e-16 -2.70006939e-14)
(0 2.451829381e-17 -2.381881096e-14)
(0 3.254094057e-16 -2.10159998e-14)
(0 5.21448662e-16 -1.855012049e-14)
(0 6.403177488e-16 -1.638299948e-14)
(0 7.029847062e-16 -1.448040721e-14)
(0 7.252563188e-16 -1.281188081e-14)
(0 7.189825467e-16 -1.135046523e-14)
(0 6.929877372e-16 -1.007241892e-14)
(0 6.53788566e-16 -8.956912824e-15)
(0 6.061462308e-16 -7.985739629e-15)
(0 5.534902549e-16 -7.143042711e-15)
(0 4.982430937e-16 -6.415069575e-15)
(0 4.420682671e-16 -5.789951542e-15)
(0 3.860596523e-16 -5.257509754e-15)
(0 3.308856063e-16 -4.809086533e-15)
(0 2.768985056e-16 -4.437400695e-15)
(0 2.24217914e-16 -4.136425198e-15)
(0 1.727937655e-16 -3.901285542e-15)
(0 1.224545565e-16 -3.728177453e-15)
(0 7.29439147e-17 -3.614302603e-15)
(0 2.417968205e-17 -3.557821307e-15)
(0 0.2984899745 0.02234630377)
(0 0.291481403 0.06478934208)
(0 0.286861212 0.1259385357)
(0 0.3041373128 0.196907354)
(0 0.06382045494 -0.3781190841)
(0 -0.7943307211 -1.766177701)
(0 -1.061167265 -2.502205637)
(0 -0.02122443704 -1.220665494)
(0 -1.388150264e-13 -1.011504171e-14)
(0 -2.670312608e-13 -6.545171293e-14)
(0 -2.337355524e-13 -1.089202865e-13)
(0 -1.946809239e-13 -1.347077001e-13)
(0 -1.559833321e-13 -1.461252198e-13)
(0 -1.213026532e-13 -1.47300516e-13)
(0 -9.205316845e-14 -1.418696344e-13)
(0 -6.835437327e-14 -1.326061032e-13)
(0 -4.968796812e-14 -1.214526537e-13)
(0 -3.529276771e-14 -1.096857949e-13)
(0 -2.437715538e-14 -9.809500052e-14)
(0 -1.621958292e-14 -8.713395695e-14)
(0 -1.020614565e-14 -7.703486317e-14)
(0 -5.835664065e-15 -6.788955392e-14)
(0 -2.709807789e-15 -5.97047195e-14)
(0 -5.177427559e-16 -5.243830985e-14)
(0 9.799309584e-16 -4.602286436e-14)
(0 1.965801854e-15 -4.038003119e-14)
(0 2.578062567e-15 -3.542928963e-14)
(0 2.920631804e-15 -3.109293693e-14)
(0 3.071197605e-15 -2.729871826e-14)
(0 3.087501402e-15 -2.398100472e-14)
(0 3.012191282e-15 -2.108110448e-14)
(0 2.87654021e-15 -1.85470794e-14)
(0 2.703278455e-15 -1.63332997e-14)
(0 2.508742286e-15 -1.439987953e-14)
(0 2.304498828e-15 -1.271207817e-14)
(0 2.098571633e-15 -1.123971515e-14)
(0 1.896362952e-15 -9.956625166e-15)
(0 1.701346153e-15 -8.840164666e-15)
(0 1.515584245e-15 -7.870773707e-15)
(0 1.340116979e-15 -7.031592366e-15)
(0 1.175248729e-15 -6.308128249e-15)
(0 1.020761514e-15 -5.687970717e-15)
(0 8.760716243e-16 -5.160547065e-15)
(0 7.403437882e-16 -4.716916056e-15)
(0 6.125734648e-16 -4.349594573e-15)
(0 4.916452733e-16 -4.052413673e-15)
(0 3.76373657e-16 -3.820400815e-15)
(0 2.655304459e-16 -3.649685615e-15)
(0 1.578623324e-16 -3.537426934e-15)
(0 5.233210973e-17 -3.481759634e-15)
(0 0.3447014236 0.02338947753)
(0 0.342534136 0.0723012435)
(0 0.3410606357 0.1176602475)
(0 0.3413343415 0.2272412599)
(0 0.4223406991 0.1466987404)
(0 -0.4840478931 -1.149629963)
(0 -1.138622817 -2.582697813)
(0 -0.04267306102 -1.954169652)
(0 -1.744781874e-13 -2.332402189e-14)
(0 -3.27696737e-13 -1.039144978e-13)
(0 -2.716492211e-13 -1.578824978e-13)
(0 -2.131108273e-13 -1.832697731e-13)
(0 -1.602769099e-13 -1.890599771e-13)
(0 -1.164625216e-13 -1.82852696e-13)
(0 -8.193223282e-14 -1.701022725e-13)
(0 -5.563031514e-14 -1.543845457e-13)
(0 -3.609230668e-14 -1.378901883e-13)
(0 -2.187398997e-14 -1.218726156e-13)
(0 -1.172196468e-14 -1.069852058e-13)
(0 -4.61718157e-15 -9.351391836e-14)
(0 2.377746109e-16 -8.152966745e-14)
(0 3.451923445e-15 -7.098454569e-14)
(0 5.482873213e-15 -6.177073605e-14)
(0 6.67050774e-15 -5.375545062e-14)
(0 7.265068418e-15 -4.680085402e-14)
(0 7.449466233e-15 -4.077479082e-14)
(0 7.356507767e-15 -3.555601127e-14)
(0 7.081956358e-15 -3.103619768e-14)
(0 6.694320278e-15 -2.712020303e-14)
(0 6.242132073e-15 -2.37253516e-14)
(0 5.759334721e-15 -2.078030268e-14)
(0 5.269253448e-15 -1.822376442e-14)
(0 4.787517615e-15 -1.600321486e-14)
(0 4.32420623e-15 -1.407371048e-14)
(0 3.885420708e-15 -1.239681734e-14)
(0 3.474435554e-15 -1.093967462e-14)
(0 3.092538217e-15 -9.674186738e-15)
(0 2.739640024e-15 -8.57633369e-15)
(0 2.41471853e-15 -7.625586558e-15)
(0 2.116135714e-15 -6.804414616e-15)
(0 1.841864743e-15 -6.097871376e-15)
(0 1.589649451e-15 -5.493248081e-15)
(0 1.357114313e-15 -4.979784672e-15)
(0 1.141838098e-15 -4.54842971e-15)
(0 9.41400889e-16 -4.191642115e-15)
(0 7.534116724e-16 -3.903228819e-15)
(0 5.755218232e-16 -3.67821351e-15)
(0 4.054284373e-16 -3.512732602e-15)