/*--------------------------------*- C++ -*----------------------------------*\
  =========                 |
  \\      /  F ield         | OpenFOAM: The Open Source CFD Toolbox
   \\    /   O peration     | Website:  https://openfoam.org
    \\  /    A nd           | Version:  6
     \\/     M anipulation  |
\*---------------------------------------------------------------------------*/
FoamFile
{
    version     2.0;
    format      ascii;
    class       volScalarField;
    location    "0.12";
    object      ViscousDissipation;
}
// * * * * * * * * * * * * * * * * * * * * * * * * * * * * * * * * * * * * * //

dimensions      [1 -1 -3 0 0 0 0];

internalField   nonuniform List<scalar> 
2500
(
25.66829947
16.76480248
1.35950334
0.1777403511
0.1104983753
0.5554730646
0.5713318383
0.01920337063
0.02015274278
5.006672629e-24
5.445218187e-26
1.078468295e-25
1.74177848e-25
2.433402636e-25
3.076554428e-25
3.61052953e-25
3.996529328e-25
4.218506651e-25
4.280210078e-25
4.200023191e-25
4.005147694e-25
3.726291455e-25
3.393523753e-25
3.033514527e-25
2.668061727e-25
2.313642417e-25
1.981671189e-25
1.679172687e-25
1.409635594e-25
1.173885791e-25
9.708800391e-26
7.983714432e-26
6.534325068e-26
5.328429647e-26
4.333606732e-26
3.518979794e-26
2.856258094e-26
2.320252252e-26
1.889027569e-26
1.543822532e-26
1.268827521e-26
1.050891609e-26
8.792038271e-27
7.449790465e-27
6.411669123e-27
5.621942439e-27
5.037464475e-27
4.625921399e-27
4.364620466e-27
4.511854213e-27
4.960699574
8.899638804
3.295019727
0.4909498827
0.09607753196
0.1264687496
0.1610130107
0.0693056915
0.06844024431
5.109903342e-24
8.131154139e-26
1.341283875e-25
1.998017838e-25
2.679450443e-25
3.30817801e-25
3.823732469e-25
4.188201123e-25
4.386796729e-25
4.424618782e-25
4.321266351e-25
4.104882515e-25
3.806790918e-25
3.457366391e-25
3.083329554e-25
2.706345222e-25
2.342643001e-25
2.003333862e-25
1.69512584e-25
1.421206553e-25
1.182132616e-25
9.766304782e-26
8.02262855e-26
6.559490838e-26
5.34348364e-26
4.341254095e-26
3.521216806e-26
2.854548419e-26
2.315663682e-26
1.882336348e-26
1.535591841e-26
1.259465852e-26
1.040695748e-26
8.68390235e-27
7.337065516e-27
6.295528343e-27
5.503251057e-27
4.916825402e-27
4.50358665e-27
4.241381543e-27
6.549305865e-27
1.10730238
5.818713312
6.596384967
2.110031069
0.2464844679
0.01401904384
0.0683558233
0.07220886144
0.0007762884531
5.324631653e-24
1.381932772e-25
1.900119444e-25
2.541739046e-25
3.199381756e-25
3.795248723e-25
4.269818502e-25
4.587268075e-25
4.735540835e-25
4.722555845e-25
4.570381646e-25
4.309022867e-25
3.970975592e-25
3.587148406e-25
3.184282589e-25
2.783702188e-25
2.401078466e-25
2.046864293e-25
1.727095596e-25
1.444329233e-25
1.198562928e-25
9.880484107e-26
8.099581397e-26
6.608988884e-26
5.37284792e-26
4.355917834e-26
3.525180337e-26
2.850737956e-26
2.30620873e-26
1.868780747e-26
1.519052175e-26
1.240749014e-26
1.020385384e-26
8.469097944e-27
7.113649811e-27
6.065775018e-27
5.268854882e-27
4.679078163e-27
4.263546795e-27
3.99991431e-27
1.05031954e-26
0.1672913917
1.738676831
6.817153652
5.607670296
1.296050796
0.09286153441
0.09272147099
0.03275641095
0.03907599427
5.664128957e-24
2.335457881e-25
2.83257698e-25
3.44266635e-25
4.054115213e-25
4.589327987e-25
4.99104519e-25
5.227287075e-25
5.290588451e-25
5.193362922e-25
4.961445694e-25
4.627546205e-25
4.2257406e-25
3.78751994e-25
3.339436522e-25
2.902104563e-25
2.490191395e-25
2.113031046e-25
1.775551683e-25
1.479291496e-25
1.223358742e-25
1.005258069e-25
8.215532104e-26
6.683669292e-26
5.417361583e-26
4.378477394e-26
3.531813714e-26
2.845841546e-26
2.29297277e-26
1.849511413e-26
1.495412393e-26
1.213936594e-26
9.912636163e-27
8.161025075e-27
6.793253449e-27
5.736376779e-27
4.932925567e-27
4.338502808e-27
3.919832548e-27
3.654282835e-27
1.613783343e-26
1.123845038
0.06640908087
4.168481359
7.912190753
4.268187088
0.4964038777
0.02547287123
0.0122514328
0.06059118342
6.16179808e-24
3.823676505e-25
4.275061812e-25
4.822135867e-25
5.348198754e-25
5.777638447e-25
6.057888563e-25
6.163458016e-25
6.09390301e-25
5.868046874e-25
5.516758886e-25
5.076083873e-25
4.581776245e-25
4.065620828e-25
3.553451789e-25
3.064527933e-25
2.611842804e-25
2.202977872e-25
1.841189863e-25
1.526518872e-25
1.256789667e-25
1.02844465e-25
8.371922401e-26
6.78481715e-26
5.47829411e-26
4.410259311e-26
3.542533014e-26
2.841374635e-26
2.277568395e-26
1.826230048e-26
1.466452978e-26
1.180877114e-26
9.552367801e-27
7.779231756e-27
6.395824773e-27
5.327604774e-27
4.515980474e-27
3.915776919e-27
3.493190217e-27
3.225167993e-27
2.311786157e-26
2.730640037
1.607715089
0.9874182795
6.592785963
8.285520619
1.811815628
0.001185002312
0.01435754044
0.1176492512
6.863034272e-24
6.095619432e-25
6.452609681e-25
6.877304019e-25
7.248566746e-25
7.496866719e-25
7.57869642e-25
7.479042622e-25
7.207611965e-25
6.791689834e-25
6.268178397e-25
5.67658288e-25
5.053834169e-25
4.431128326e-25
3.832523659e-25
3.274840602e-25
2.768386529e-25
2.318099974e-25
1.924817132e-25
1.58647082e-25
1.299119994e-25
1.057771101e-25
8.569927666e-26
6.913473964e-26
5.556726188e-26
4.452468519e-26
3.558701667e-26
2.838865366e-26
2.261680241e-26
1.800762967e-26
1.434124863e-26
1.143629073e-26
9.144549515e-27
7.345988955e-27
5.944273768e-27
4.862889269e-27
4.041861437e-27
3.435055269e-27
3.008011061e-27
2.73716061e-27
3.102522213e-26
3.709849015
5.058439643
0.1259339976
3.299562911
9.582171819
4.843597872
0.1846608046
0.01432499609
0.2881510997
7.836772818e-24
9.563619627e-25
9.732035518e-25
9.923258023e-25
1.001621635e-24
9.95579764e-25
9.715082903e-25
9.295350529e-25
8.720190581e-25
8.027102776e-25
7.259173308e-25
6.458402405e-25
5.661280121e-25
4.896520953e-25
4.184505135e-25
3.537866211e-25
2.962712142e-25
2.460085235e-25
2.027397479e-25
1.659691607e-25
1.350663044e-25
1.093433701e-25
8.811004936e-26
7.070962174e-26
5.654039992e-26
4.506637931e-26
3.582036228e-26
2.840215892e-26
2.24738289e-26
1.775337787e-26
1.400787818e-26
1.104664377e-26
8.71484002e-27
6.887734408e-27
5.465676647e-27
4.369822029e-27
3.538568001e-27
2.924651457e-27
2.492844117e-27
2.218978511e-27
3.93833652e-26
3.330577442
7.728721451
2.497628525
0.4786204579
7.849313273
8.980859597
1.274778042
0.001875915366
0.6377685643
9.191898969e-24
1.491725869e-24
1.471530226e-24
1.446517238e-24
1.405862641e-24
1.347128547e-24
1.270535263e-24
1.178624579e-24
1.075499819e-24
9.659573948e-25
8.547290929e-25
7.459476973e-25
6.4285571e-25
5.47719396e-25
4.618869211e-25
3.859293038e-25
3.198148273e-25
2.630830266e-25
2.149985424e-25
1.746760048e-25
1.411743765e-25
1.135633972e-25
9.0966747e-26
7.258706437e-26
5.771763384e-26
4.574484316e-26
3.614466666e-26
2.847562614e-26
2.236998503e-26
1.752437126e-26
1.3690597e-26
1.0667131e-26
8.291461185e-27
6.433439539e-27
4.989609244e-27
3.878460566e-27
3.036535112e-27
2.415288733e-27
1.978623719e-27
1.701697603e-27
4.768480154e-26
1.963841833
7.190207359
6.611121082
0.4761671277
4.035806689
12.25753093
3.942003186
0.02241825079
0.8135312777
1.111330432e-23
2.33365362e-24
2.240798888e-24
2.132392574e-24
2.001692155e-24
1.852514934e-24
1.689968707e-24
1.519881285e-24
1.348177826e-24
1.180288044e-24
1.020705049e-24
8.727538642e-25
7.385573307e-25
6.191471758e-25
5.146581492e-25
4.245517944e-25
3.478323435e-25
2.832331533e-25
2.293646805e-25
1.8482343e-25
1.482661027e-25
1.184552814e-25
9.4283373e-26
7.478093985e-26
5.911453189e-26
4.657800905e-26
3.658029955e-26
2.863165931e-26
2.23298019e-26
1.734674525e-26
1.341684718e-26
1.0326244e-26
7.903739772e-27
6.013091075e-27
4.546576218e-27
3.419712404e-27
2.566979335e-27
1.938415137e-27
1.496963598e-27
1.217040173e-27
5.542093968e-26
0.2568316498
3.660529308
9.138116266
4.023140673
0.6418890102
11.68941589
8.266219612
0.3910106635
0.6899294729
1.383839309e-23
3.682624007e-24
3.452804968e-24
3.185929561e-24
2.891182635e-24
2.585364934e-24
2.281209222e-24
1.988194154e-24
1.713147309e-24
1.460640108e-24
1.233298432e-24
1.032114729e-24
8.567829939e-25
7.060393405e-25
5.779804167e-25
4.703375368e-25
3.806952587e-25
3.066530133e-25
2.459351138e-25
1.964579187e-25
1.563638944e-25
1.240317423e-25
9.80703816e-26
7.730295583e-26
6.074545778e-26
4.75832137e-26
3.714737758e-26
2.889276168e-26
2.237773358e-26
1.724649979e-26
1.321382848e-26
1.005210058e-26
7.580488917e-27
5.656024753e-27
4.166303477e-27
3.023592556e-27
2.160127532e-27
1.5244097e-27
1.078347698e-27
7.955575621e-28
6.211265864e-26
0.01360107451
0.8773218816
7.5986109
9.168775267
0.5665116681
7.168531394
12.36440435
1.834588847
2.043598252
1.790698425e-23
5.921956177e-24
5.416523119e-24
4.838313559e-24
4.238942333e-24
3.658652714e-24
3.119515891e-24
2.632429139e-24
2.20141534e-24
1.8262716e-24
1.504225241e-24
1.23101127e-24
1.00160225e-24
8.10711403e-25
6.531344098e-25
5.239705209e-25
4.187525926e-25
3.335098479e-25
2.647829623e-25
2.096072903e-25
1.654765286e-25
1.302959546e-25
1.023317003e-25
8.016036938e-26
6.262166313e-26
4.877548044e-26
3.786412675e-26
2.927971761e-26
2.253652672e-26
1.7247842e-26
1.310680899e-26
9.870723411e-27
7.348257351e-27
5.389148775e-27
3.875939722e-27
2.717406969e-27
1.843385835e-27
1.200740463e-27
7.502807541e-28
4.647763736e-28
6.733989282e-26
0.04051555538
0.04059313485
3.582691006
12.06146094
5.062842777
1.938980552
14.62164473
5.204961082
18.49471233
2.485505164e-23
9.915908728e-24
8.720934971e-24
7.492005231e-24
6.312679322e-24
5.245639554e-24
4.314293477e-24
3.520149477e-24
2.853853796e-24
2.301422104e-24
1.847577484e-24
1.477465008e-24
1.17747404e-24
9.355722781e-25
7.41374546e-25
5.860712938e-25
4.622879577e-25
3.639160842e-25
2.859396046e-25
2.242692374e-25
1.75591693e-25
1.372365214e-25
1.07061137e-25
8.335322067e-26
6.47489847e-26
5.016546857e-26
3.874496377e-26
2.980973967e-26
2.282539822e-26
1.7371377e-26
1.311732106e-26
9.804237893e-27
7.229528391e-27
5.235144074e-27
3.698258418e-27
2.523956527e-27
1.639545871e-27
9.901729494e-28
5.35498828e-28
2.474105939e-28
7.076844878e-26
0.05345179908
0.03407714193
0.8219087397
9.929761399
12.42160967
0.3532025743
13.91054379
11.25861367
130.3994127
3.578240908e-23
1.726667248e-23
1.444435964e-23
1.184058379e-23
9.54474383e-24
7.609337733e-24
6.022175525e-24
4.742834417e-24
3.722900081e-24
2.91558815e-24
2.279614759e-24
1.780232011e-24
1.38897842e-24
1.082925084e-24
8.43792862e-25
6.571083898e-25
5.11463635e-25
3.978946162e-25
3.093732282e-25
2.403979564e-25
1.866674366e-25
1.448217514e-25
1.122382946e-25
8.687118776e-26
6.71252384e-26
5.17571793e-26
3.979838719e-26
3.04944754e-26
2.325811983e-26
1.763224967e-26
1.326134854e-26
9.869098026e-27
7.240979644e-27
5.21075396e-27
3.64997381e-27
2.459875926e-27
1.565142908e-27
9.091439328e-28
4.503549569e-28
1.597552123e-28
7.217231781e-26
0.0632612324
0.09321668062
0.03215948247
4.754309303
17.99404303
5.862951867
9.833615974
20.09916585
607.2880139
5.445928059e-23
3.090959114e-23
2.451908145e-23
1.90616072e-23
1.462320584e-23
1.114150349e-23
8.461829739e-24
6.42039927e-24
4.873169469e-24
3.702925007e-24
2.817980217e-24
2.148154083e-24
1.64035686e-24
1.254665976e-24
9.611306238e-25
7.372838418e-25
5.662521846e-25
4.353382453e-25
3.349646843e-25
2.578895187e-25
1.986229899e-25
1.529935766e-25
1.178242465e-25
9.06902669e-26
6.973748593e-26
5.354557848e-26
4.102483008e-26
3.133802053e-26
2.384115288e-26
1.803837778e-26
1.354764366e-26
1.007447613e-26
7.391936758e-27
5.325294018e-27
3.740299514e-27
2.534233738e-27
1.629090327e-27
9.664233288e-28
5.035015513e-28
2.103822446e-28
7.144990625e-26
0.07884893952
0.1061459452
0.1172803143
0.8234097023
16.53690602
18.65398133
4.056932074
29.88684422
2037.088589
9.085130504e-23
5.811852401e-23
4.280108456e-23
3.120932881e-23
2.263463867e-23
1.64106437e-23
1.19269244e-23
8.702368447e-24
6.379493539e-24
4.700048577e-24
3.480019826e-24
2.589038959e-24
1.934816851e-24
1.451869931e-24
1.093538007e-24
8.263960333e-25
6.263588402e-25
4.759657724e-25
3.624823798e-25
2.765671467e-25
2.113297424e-25
1.6166166e-25
1.237573775e-25
9.476959557e-26
7.255943901e-26
5.551436829e-26
4.241468453e-26
3.233513306e-26
2.457201523e-26
1.858894839e-26
1.397633582e-26
1.042097041e-26
7.683167724e-27
5.579522042e-27
3.969883553e-27
2.74752244e-27
1.831714892e-27
1.162185275e-27
6.949880997e-28
3.992560415e-28
6.863288228e-26
0.09329628406
0.09705307459
0.1878721508
0.05454163124
8.169242798
32.00967777
2.724621005
35.80347812
5223.268704
1.65768747e-22
1.140214233e-22
7.644207836e-23
5.170677577e-23
3.521789512e-23
2.419745835e-23
1.678604379e-23
1.176038561e-23
8.320090194e-24
5.941336974e-24
4.279891709e-24
3.107982116e-24
2.273590561e-24
1.674274205e-24
1.240294751e-24
9.236899852e-25
6.911415574e-25
5.192791439e-25
3.915589689e-25
2.961681341e-25
2.24603503e-25
1.706984561e-25
1.299499408e-25
9.904884266e-26
7.554934657e-26
5.763420146e-26
4.394675493e-26
3.346987763e-26
2.543808747e-26
1.927336552e-26
1.453800436e-26
1.089978841e-26
8.106163647e-27
5.965003382e-27
4.330246154e-27
3.091157101e-27
2.164305282e-27
1.487595928e-27
1.015878047e-27
7.173693387e-28
6.38867336e-26
0.09646889494
0.09863021116
0.1350009873
0.3639691782
1.390356883
30.17732708
14.08544292
32.42145998
10575.18254
3.15662181e-22
2.291543577e-22
1.380082372e-22
8.587862198e-23
5.464623421e-23
3.547183886e-23
2.344951562e-23
1.576443417e-23
1.076229853e-23
7.451008547e-24
5.224340133e-24
3.705164784e-24
2.654804943e-24
1.91970506e-24
1.399521933e-24
1.027713533e-24
7.595396145e-25
5.645280114e-25
4.216735779e-25
3.163346582e-25
2.38199453e-25
1.799361639e-25
1.362859976e-25
1.034466669e-25
7.864876285e-26
5.986166624e-26
4.558741812e-26
3.471493962e-26
2.641606718e-26
2.007083251e-26
1.521337732e-26
1.14925501e-26
8.643033938e-27
6.46408634e-27
4.80382377e-27
3.547576922e-27
2.609260573e-27
1.924998802e-27
1.448461367e-27
1.146973739e-27
5.75026301e-26
0.09015700368
0.1022648395
0.08445511121
0.3061673159
0.08561143364
15.89139578
36.32472886
19.6791517
17330.89367
5.575985157e-22
4.583362379e-22
2.471009009e-22
1.409222056e-22
8.359326971e-23
5.12259978e-23
3.227697062e-23
2.083597662e-23
1.373969262e-23
9.232129572e-24
6.307460541e-24
4.373376286e-24
3.072317424e-24
2.183536122e-24
1.567933704e-24
1.136205954e-24
8.300251826e-25
6.106896049e-25
4.521439895e-25
3.366110554e-25
2.518113655e-25
1.891665911e-25
1.426214443e-25
1.078607638e-25
8.178259761e-26
6.213936281e-26
4.729075258e-26
3.603182654e-26
2.747225285e-26
2.095072154e-26
1.597378409e-26
1.217181798e-26
9.267106496e-27
7.050563992e-27
5.364683916e-27
4.091004592e-27
3.140885912e-27
2.448738954e-27
1.967099765e-27
1.662438707e-27
4.988076441e-26
0.07962595867
0.09168502432
0.076166188
0.1442304462
0.4532283811
4.400596764
54.58117449
5.636731039
23410.57275
9.215518362e-22
8.772563028e-22
4.263956629e-22
2.237926579e-22
1.241973634e-22
7.208338852e-23
4.341540905e-23
2.698032047e-23
1.722345918e-23
1.125437152e-23
7.505439985e-24
5.09576489e-24
3.514770249e-24
2.458304749e-24
1.740692212e-24
1.246050919e-24
9.005941269e-25
6.564723829e-25
4.821333257e-25
3.564501012e-25
2.65076592e-25
1.981448794e-25
1.487867669e-25
1.121699548e-25
8.486078573e-26
6.439732847e-26
4.899983605e-26
3.737211176e-26
2.856377777e-26
2.187382215e-26
1.678243098e-26
1.29024046e-26
9.944267469e-27
7.691044195e-27
5.97992212e-27
4.688866311e-27
3.726831581e-27
3.026617047e-27
2.539691851e-27
2.231724014e-27
4.150596079e-26
0.067786343
0.07457451116
0.08596350766
0.08392909974
0.4185661313
0.6405803042
51.16612912
0.2723459517
26063.97665
2.006252149e-21
1.521070975e-21
6.840820821e-22
3.360089327e-22
1.764501107e-22
9.776714277e-23
5.66131044e-23
3.401827301e-23
2.109651654e-23
1.344411056e-23
8.772826471e-24
5.844505152e-24
3.965174902e-24
2.733629912e-24
1.911432848e-24
1.3533256e-24
9.688113755e-25
7.003510047e-25
5.106750555e-25
3.752303175e-25
2.775879499e-25
2.065977655e-25
1.545929509e-25
1.162386042e-25
8.778177094e-26
6.655594495e-26
5.064930018e-26
3.867977497e-26
2.964082138e-26
2.279447521e-26
1.759648893e-26
1.364343249e-26
1.063500455e-26
8.346982715e-27
6.611688713e-27
5.303814515e-27
4.330113012e-27
3.621907545e-27
3.129690102e-27
2.818395876e-27
3.291695198e-26
0.05398231199
0.05792650247
0.08424004031
0.06725899776
0.2254509256
0.6520018411
38.11697153
5.579038964
23525.26106
4.805663704e-21
2.305249677e-21
9.968842484e-22
4.695898414e-22
2.370859521e-22
1.267611695e-22
7.110853781e-23
4.154886769e-23
2.514142439e-23
1.568101395e-23
1.004197999e-23
6.581070155e-24
4.401321397e-24
2.996559877e-24
2.072516054e-24
1.453470644e-24
1.031921708e-24
7.406373853e-25
5.367184183e-25
3.922852345e-25
2.889129229e-25
2.142365581e-25
1.598406154e-25
1.199233759e-25
9.043778133e-26
6.853028168e-26
5.216907803e-26
3.989456154e-26
3.064970923e-26
2.366349451e-26
1.836988853e-26
1.435103663e-26
1.129703968e-26
8.977262252e-27
7.219725903e-27
5.896231997e-27
4.911589237e-27
4.195817613e-27
3.698545626e-27
3.384062465e-27
2.467126746e-26
0.03796235995
0.04297807419
0.06910914797
0.08593170021
0.1018632515
1.804736024
27.72130512
15.48019555
18143.01322
8.13546867e-21
3.094202914e-21
1.32174635e-21
6.09243701e-22
3.000020693e-22
1.564007728e-22
8.565887676e-23
4.896389765e-23
2.904963698e-23
1.780407636e-23
1.122690805e-23
7.25860066e-24
4.797211475e-24
3.23242787e-24
2.21553476e-24
1.541590705e-24
1.087028387e-24
7.755877923e-25
5.591935574e-25
4.069438451e-25
2.986195285e-25
2.207743172e-25
1.643319627e-25
1.230819908e-25
9.272160555e-26
7.023561518e-26
5.348910576e-26
4.095613612e-26
3.153668727e-26
2.443166976e-26
1.905662264e-26
1.498151494e-26
1.188836144e-26
9.541131644e-27
7.764232883e-27
6.427038163e-27
5.432722927e-27
4.710211851e-27
4.208407285e-27
3.891056315e-27
1.730810139e-26
0.0216781965
0.02903665556
0.04659626616
0.1128091768
0.04412437531
2.657305066
16.91838196
27.35109776
11081.54372
9.079103051e-21
3.783267072e-21
1.613760574e-21
7.366663285e-22
3.574513426e-22
1.83265343e-22
9.869276188e-23
5.551569037e-23
3.245424125e-23
1.962824059e-23
1.223194931e-23
7.826524017e-24
5.125547827e-24
3.426208941e-24
2.332062501e-24
1.612872134e-24
1.131329799e-24
8.035393106e-25
5.77091974e-25
4.18579379e-25
3.063069384e-25
2.259459161e-25
1.678845922e-25
1.255832676e-25
9.453429907e-26
7.159365063e-26
5.454456971e-26
4.180866806e-26
3.225204221e-26
2.505354861e-26
1.961427491e-26
1.549466167e-26
1.237040546e-26
1.000126471e-26
8.208827615e-27
6.860573527e-27
5.858404155e-27
5.130389623e-27
4.624865392e-27
4.305156057e-27
1.131178305e-26
0.008537609659
0.01784956227
0.025651851
0.1267859669
0.09479373076
2.726589238
9.169478028
37.48819148
4538.099363
7.305054211e-21
4.282602806e-21
1.831687594e-21
8.336180533e-22
4.013927162e-22
2.037584871e-22
1.085660886e-22
6.043372803e-23
3.498475981e-23
2.097081035e-23
1.296477868e-23
8.237079676e-24
5.361066242e-24
3.564250661e-24
2.414567919e-24
1.663075019e-24
1.162389486e-24
8.230614251e-25
5.89553917e-25
4.266613294e-25
3.116376795e-25
2.295289081e-25
1.703457453e-25
1.273174006e-25
9.579301687e-26
7.25387989e-26
5.52811586e-26
4.240538352e-26
3.27541575e-26
2.549112925e-26
2.00074379e-26
1.585697345e-26
1.27110934e-26
1.032666631e-26
8.523346564e-27
7.167314773e-27
6.159598934e-27
5.427682797e-27
4.919512636e-27
4.598123367e-27
7.07852246e-27
0.001441793759
0.0117683643
0.01503191476
0.1237224508
0.1866757126
2.448553075
7.107088758
42.37011289
549.6929198
5.303987001e-21
4.54012753e-21
1.947012897e-21
8.858383118e-22
4.252068357e-22
2.148637887e-22
1.138979884e-22
6.307600186e-23
3.633642864e-23
2.168372096e-23
1.33517196e-23
8.452724078e-24
5.484186469e-24
3.636108926e-24
2.457356784e-24
1.689026973e-24
1.17840101e-24
8.33101791e-25
5.959510279e-25
4.308039812e-25
3.143673361e-25
2.313626059e-25
1.716052363e-25
1.282052318e-25
9.643803957e-26
7.302377436e-26
5.565971907e-26
4.27125752e-26
3.301306402e-26
2.571707334e-26
2.021067045e-26
1.604440848e-26
1.288743596e-26
1.049515089e-26
8.686223839e-27
7.326174724e-27
6.315587027e-27
5.5816461e-27
5.072100095e-27
4.749836602e-27
4.888929377e-27
0.001441794008
0.01176836295
0.0150319142
0.1237224394
0.1866756831
2.448553242
7.107088776
42.37011287
549.6930064
5.303986819e-21
4.540127349e-21
1.947012826e-21
8.858382921e-22
4.252068363e-22
2.148637956e-22
1.13897996e-22
6.307600829e-23
3.633643359e-23
2.16837246e-23
1.335172223e-23
8.452725953e-24
5.484187809e-24
3.636109887e-24
2.457357479e-24
1.68902748e-24
1.178401383e-24
8.331020679e-25
5.959512353e-25
4.308041376e-25
3.143674548e-25
2.313626962e-25
1.716053051e-25
1.282052842e-25
9.643807937e-26
7.302380431e-26
5.565974131e-26
4.271259136e-26
3.301307539e-26
2.57170809e-26
2.021067498e-26
1.604441061e-26
1.288743617e-26
1.049514958e-26
8.686221338e-27
7.32617129e-27
6.315582878e-27
5.581641419e-27
5.072095039e-27
4.749831359e-27
4.888411457e-27
0.008537607323
0.01784955573
0.02565184481
0.1267859244
0.09479368404
2.726589274
9.169476029
37.48818906
4538.099548
7.305053463e-21
4.282602322e-21
1.831687375e-21
8.336179884e-22
4.013927149e-22
2.03758506e-22
1.085661103e-22
6.043374662e-23
3.498477422e-23
2.097082099e-23
1.296478637e-23
8.237085182e-24
5.361070182e-24
3.564253493e-24
2.414569969e-24
1.663076516e-24
1.162390589e-24
8.230622456e-25
5.895545323e-25
4.266617941e-25
3.116380324e-25
2.295291772e-25
1.703459508e-25
1.273175573e-25
9.579313594e-26
7.253888865e-26
5.528122537e-26
4.240543219e-26
3.275419184e-26
2.54911522e-26
2.000745179e-26
1.585698013e-26
1.271109434e-26
1.03266627e-26
8.523339362e-27
7.167304767e-27
6.159586777e-27
5.427669037e-27
4.919497743e-27
4.598107911e-27
7.076974012e-27
0.02167818303
0.02903663691
0.0465962404
0.112809105
0.04412435672
2.657304086
16.91837847
27.35108451
11081.54348
9.079101459e-21
3.783266028e-21
1.61376015e-21
7.366662012e-22
3.574513314e-22
1.83265369e-22
9.869279444e-23
5.551571916e-23
3.245426386e-23
1.962825742e-23
1.223196154e-23
7.826532813e-24
5.125554144e-24
3.426213495e-24
2.332065808e-24
1.612874556e-24
1.131331588e-24
8.03540645e-25
5.770929775e-25
4.185801389e-25
3.063075171e-25
2.259463584e-25
1.678849308e-25
1.255835267e-25
9.453449643e-26
7.159379989e-26
5.454468118e-26
4.180874969e-26
3.225210017e-26
2.505358774e-26
1.961429902e-26
1.54946738e-26
1.237040805e-26
1.000125971e-26
8.208816606e-27
6.860557825e-27
5.858384845e-27
5.13036762e-27
4.624841484e-27
4.305131195e-27
1.130922004e-26
0.03796232375
0.04297803441
0.06910909133
0.0859316247
0.1018631482
1.804734184
27.7213017
15.48017741
18143.00862
8.135463864e-21
3.094201103e-21
1.321745694e-21
6.092435031e-22
3.000020411e-22
1.564008003e-22
8.565891627e-23
4.896393393e-23
2.904966601e-23
1.780409822e-23
1.122692405e-23
7.258612235e-24
4.797219827e-24
3.232433917e-24
2.215539168e-24
1.541593946e-24
1.087030793e-24
7.755895935e-25
5.591949173e-25
4.069448791e-25
2.98620319e-25
2.207749238e-25
1.643324289e-25
1.230823488e-25
9.272187956e-26
7.023582339e-26
5.348926212e-26
4.095625141e-26
3.153676989e-26
2.443172631e-26
1.905665835e-26
1.498153397e-26
1.188836713e-26
9.541126704e-27
7.764219517e-27
6.427018188e-27
5.432697857e-27
4.710182968e-27
4.208375701e-27
3.891023358e-27
1.730455052e-26
0.05398224055
0.0579264327
0.08423996431
0.06725894831
0.2254506475
0.6520009817
38.11696239
5.579035064
23525.24991
4.805656985e-21
2.305247274e-21
9.968834373e-22
4.695895898e-22
2.370859058e-22
1.267611942e-22
7.110858045e-23
4.154890869e-23
2.514145792e-23
1.568103953e-23
1.004199887e-23
6.581083895e-24
4.401331366e-24
2.996567133e-24
2.072521371e-24
1.453474574e-24
1.03192464e-24
7.406395921e-25
5.367200932e-25
3.922865147e-25
2.889139067e-25
2.142373169e-25
1.598412016e-25
1.199238285e-25
9.043812963e-26
6.853054797e-26
5.216927944e-26
3.989471136e-26
3.064981784e-26
2.366357011e-26
1.836993764e-26
1.435106447e-26
1.129705043e-26
8.977259346e-27
7.219712127e-27
5.896209663e-27
4.911560283e-27
4.195783692e-27
3.698508173e-27
3.384023186e-27
2.466676627e-26
0.06778621783
0.07457439879
0.08596344652
0.08392911026
0.4185661996
0.6405797179
51.16611349
0.2723467801
26063.96815
2.006248714e-21
1.521068626e-21
6.840812858e-22
3.360086632e-22
1.764500503e-22
9.776716231e-23
5.661314736e-23
3.401831642e-23
2.109655283e-23
1.344413857e-23
8.772847307e-24
5.844520411e-24
3.965186035e-24
2.733638061e-24
1.911438854e-24
1.353330067e-24
9.688147295e-25
7.00353546e-25
5.106769969e-25
3.752318109e-25
2.775891048e-25
2.065986618e-25
1.545936477e-25
1.162391457e-25
8.778219047e-26
6.655626808e-26
5.064954666e-26
3.867996019e-26
2.964095745e-26
2.279457173e-26
1.759655357e-26
1.364347141e-26
1.063502272e-26
8.346984215e-27
6.611676891e-27
5.303792158e-27
4.330082471e-27
3.621870838e-27
3.129648998e-27
2.818352449e-27
3.291154899e-26
0.07962573728
0.09168483179
0.07616613847
0.144230663
0.4532290223
4.400589708
54.58116509
5.636719843
23410.5716
9.215503137e-22
8.772549341e-22
4.263950467e-22
2.237923984e-22
1.241972925e-22
7.208340235e-23
4.341545097e-23
2.698036486e-23
1.722349692e-23
1.12544009e-23
7.50546195e-24
5.095781049e-24
3.514782097e-24
2.458313471e-24
1.740698683e-24
1.246055766e-24
9.005977932e-25
6.564751821e-25
4.821354805e-25
3.564517712e-25
2.650778931e-25
1.981458966e-25
1.487875636e-25
1.121705784e-25
8.48612727e-26
6.439770672e-26
4.900012734e-26
3.737233316e-26
2.85639428e-26
2.187394158e-26
1.678251345e-26
1.29024571e-26
9.944295683e-27
7.691052783e-27
5.979914942e-27
4.688846602e-27
3.726802088e-27
3.026580148e-27
2.539649651e-27
2.231678945e-27
4.149971564e-26
0.09015660227
0.1022644877
0.08445499687
0.3061674957
0.08561129235
15.89138046
36.32472582
19.67913936
17330.89653
5.575979104e-22
4.583358288e-22
2.471004269e-22
1.409219434e-22
8.359318716e-23
5.122600702e-23
3.227701193e-23
2.08360216e-23
1.373973107e-23
9.232159511e-24
6.307482934e-24
4.373392789e-24
3.072329569e-24
2.183545112e-24
1.56794042e-24
1.136211024e-24
8.300290504e-25
6.106925838e-25
4.521463027e-25
3.366128638e-25
2.518127863e-25
1.891677111e-25
1.426223287e-25
1.078614619e-25
8.178314748e-26
6.21397939e-26
4.729108803e-26
3.603208465e-26
2.74724482e-26
2.095086583e-26
1.597388675e-26
1.217188669e-26
9.267147537e-27
7.050582543e-27
5.364684294e-27
4.090990439e-27
3.140860351e-27
2.448704713e-27
1.967059281e-27
1.662394752e-27
4.987374789e-26
0.09646820535
0.09862960551
0.1350005033
0.3639683375
1.390355676
30.17731009
14.0854465
32.42145807
10575.18569
3.156633111e-22
2.291541721e-22
1.380077156e-22
8.587832042e-23
5.464614009e-23
3.547184794e-23
2.344955883e-23
1.576448039e-23
1.076233741e-23
7.451038474e-24
5.224362374e-24
3.705181146e-24
2.654817011e-24
1.919714039e-24
1.399528691e-24
1.027718679e-24
7.595435782e-25
5.645310944e-25
4.216759957e-25
3.163365665e-25
2.382009665e-25
1.79937368e-25
1.36286957e-25
1.034474311e-25
7.864937039e-26
5.986214732e-26
4.558779662e-26
3.471523459e-26
2.641629393e-26
2.007100341e-26
1.521350241e-26
1.14926376e-26
8.643090613e-27
6.464117801e-27
4.803834725e-27
3.547571375e-27
2.609241987e-27
1.924970237e-27
1.448425587e-27
1.146933825e-27
5.74949242e-26
0.0932952594
0.09705205954
0.1878704326
0.05454143359
8.16923115
32.0096797
2.724624454
35.80347627
5223.268467
1.657707452e-22
1.14020871e-22
7.644135563e-23
5.170642282e-23
3.521780312e-23
2.419747749e-23
1.67860934e-23
1.176043433e-23
8.320129431e-24
5.941366419e-24
4.279913293e-24
3.107997911e-24
2.27360222e-24
1.674282926e-24
1.240301368e-24
9.236950757e-25
6.911455207e-25
5.192822608e-25
3.915614401e-25
2.961701055e-25
2.246050826e-25
1.706997253e-25
1.299509619e-25
9.904966388e-26
7.555000592e-26
5.763472902e-26
4.394717476e-26
3.34702091e-26
2.543834628e-26
1.927356444e-26
1.453815386e-26
1.08998971e-26
8.106238647e-27
5.965050644e-27
4.330270702e-27
3.091163241e-27
2.164296776e-27
1.487576137e-27
1.01585005e-27
7.173364844e-28
6.387843136e-26
0.07884771185
0.1061442639
0.1172783504
0.8234075942
16.53688992
18.65400976
4.056921186
29.8868414
2037.088614
9.085324519e-23
5.811710019e-23
4.280009942e-23
3.120896752e-23
2.263458318e-23
1.64106884e-23
1.19269855e-23
8.702420647e-24
6.37953283e-24
4.700076985e-24
3.480040251e-24
2.589053796e-24
1.934827813e-24
1.451878184e-24
1.093544331e-24
8.264009544e-25
6.263627192e-25
4.759688611e-25
3.624848583e-25
2.765691469e-25
2.113313628e-25
1.616629757e-25
1.237584469e-25
9.477046438e-26
7.256014373e-26
5.551493821e-26
4.241514335e-26
3.233550007e-26
2.45723062e-26
1.858917628e-26
1.397651131e-26
1.042110235e-26
7.683263485e-27
5.579587814e-27
3.969924591e-27
2.747543283e-27
1.831719543e-27
1.162177359e-27
6.949709834e-28
3.992332857e-28
6.862408757e-26
0.06326007027
0.0932146427
0.03215932147
4.754300963
17.99405026
5.862972523
9.833598766
20.0991764
607.2882523
5.445985657e-23
3.090672929e-23
2.45179518e-23
1.906136166e-23
1.462323918e-23
1.1141589e-23
8.461904913e-24
6.420454323e-24
4.873207793e-24
3.702951576e-24
2.817998936e-24
2.148167599e-24
1.640366879e-24
1.254673588e-24
9.61136529e-25
7.372885015e-25
5.662559101e-25
4.353412533e-25
3.3496713e-25
2.578915171e-25
1.986246278e-25
1.529949213e-25
1.178253511e-25
9.069117365e-26
6.973822912e-26
5.354618602e-26
4.102532486e-26
3.133842139e-26
2.384147543e-26
1.803863492e-26
1.354784615e-26
1.007463291e-26
7.392055323e-27
5.325380695e-27
3.740359703e-27
2.534272132e-27
1.629111102e-27
9.664303157e-28
5.034983666e-28
2.103725886e-28
7.144073331e-26
0.05345111667
0.03407618584
0.821910036
9.929765901
12.42162531
0.353201835
13.91055213
11.25861778
130.3992273
3.576854196e-23
1.726206564e-23
1.444365292e-23
1.184066613e-23
9.544912043e-24
7.609466581e-24
6.02226053e-24
4.74288891e-24
3.722935449e-24
2.915611812e-24
2.279631198e-24
1.780243881e-24
1.388987298e-24
1.082931924e-24
8.437982563e-25
6.571127191e-25
5.114671538e-25
3.978975016e-25
3.093756082e-25
2.403999268e-25
1.866690714e-25
1.448231089e-25
1.122394218e-25
8.687212281e-26
6.712601281e-26
5.175781916e-26
3.979891421e-26
3.049490773e-26
2.325847263e-26
1.763253565e-26
1.326157835e-26
9.869280605e-27
7.241122515e-27
5.210863491e-27
3.650055457e-27
2.45993445e-27
1.565182579e-27
9.091687157e-28
4.503686615e-28
1.597615826e-28
7.216289068e-26
0.04051584059
0.04059333074
3.58270712
12.06147801
5.062838623
1.938987124
14.62167578
5.204935579
18.49477448
2.485000404e-23
9.918597865e-24
8.722155019e-24
7.492568094e-24