/*--------------------------------*- C++ -*----------------------------------*\
  =========                 |
  \\      /  F ield         | OpenFOAM: The Open Source CFD Toolbox
   \\    /   O peration     | Website:  https://openfoam.org
    \\  /    A nd           | Version:  6
     \\/     M anipulation  |
\*---------------------------------------------------------------------------*/
FoamFile
{
    version     2.0;
    format      ascii;
    class       surfaceScalarField;
    location    "0.14";
    object      alphaPhi0.phase1;
}
// * * * * * * * * * * * * * * * * * * * * * * * * * * * * * * * * * * * * * //

dimensions      [0 3 -1 0 0 0 0];

internalField   nonuniform List<scalar> 
4900
(
-2.982076453e-21
-9.216587112e-21
2.087584632e-22
-5.397546712e-21
9.848400457e-22
-7.109621119e-22
1.242712959e-21
-3.812891994e-23
2.674239751e-21
4.155165016e-22
1.551581617e-21
1.136916447e-21
1.109521794e-23
4.094845556e-43
-8.120674323e-18
1.912663119e-18
-1.231544961e-20
3.325108678e-24
-1.220815026e-20
-1.072993607e-22
-1.199716389e-20
-2.109886641e-22
-1.169039792e-20
-3.067711294e-22
-1.129856602e-20
-3.918397482e-22
-1.083452093e-20
-4.640555597e-22
-1.031240014e-20
-5.221338394e-22
-9.746770669e-21
-5.656450701e-22
-9.151868813e-21
-5.949199786e-22
-8.54098965e-21
-6.108997724e-22
-7.926048925e-21
-6.149637789e-22
-7.317315048e-21
-6.087593304e-22
-6.723292022e-21
-5.940508317e-22
-6.150724753e-21
-5.725973712e-22
-5.604695115e-21
-5.460619818e-22
-5.08877845e-21
-5.15951188e-22
-4.605234303e-21
-4.835807862e-22
-4.155210416e-21
-4.500625763e-22
-3.738944494e-21
-4.163065907e-22
-3.355953218e-21
-3.830338529e-22
-3.005202115e-21
-3.507955134e-22
-2.685253155e-21
-3.199951293e-22
-2.394389272e-21
-2.909117312e-22
-2.13071664e-21
-2.637220808e-22
-1.89224648e-21
-2.385211294e-22
-1.676958736e-21
-2.153401534e-22
-1.482850131e-21
-1.941623716e-22
-1.307969101e-21
-1.749360711e-22
-1.150439926e-21
-1.575854092e-22
-1.008478137e-21
-1.42019132e-22
-8.803990223e-22
-1.281374842e-22
-7.64620747e-22
-1.158375881e-22
-6.596633647e-22
-1.050175554e-22
-5.641447458e-22
-9.557956966e-23
-4.767742423e-22
-8.743214941e-23
-3.963447277e-22
-8.049177358e-23
-3.217234952e-22
-7.468402257e-23
-2.51842362e-22
-6.994437288e-23
-1.856871804e-22
-6.621878996e-23
-1.222867167e-22
-6.346435977e-23
-6.070018359e-23
-6.165063664e-23
-6.076441391e-23
-9.572044231e-21
-4.189161771e-21
-2.075039381e-21
-1.025179193e-20
-1.190372228e-22
-5.197034029e-21
1.784811864e-23
-1.771615387e-22
2.65720848e-22
7.440413624e-23
1.78208885e-22
7.73002568e-22
-1.12249525e-18
9.290260498e-41
3.283777218e-18
1.601744956e-19
-1.242403723e-20
1.302276949e-25
-1.231180429e-20
-2.195368905e-22
-1.209293228e-20
-4.298702645e-22
-1.177545585e-20
-6.242621032e-22
-1.137077541e-20
-7.965394276e-22
-1.089259706e-20
-9.422577664e-22
-1.035591301e-20
-1.058846294e-21
-9.776050274e-21
-1.145540723e-21
-9.167855493e-21
-1.203152107e-21
-8.545061883e-21
-1.233735093e-21
-7.919853289e-21
-1.240218364e-21
-7.302615337e-21
-1.226047465e-21
-6.701846869e-21
-1.194873578e-21
-6.12419689e-21
-1.150305622e-21
-5.574590894e-21
-1.095730134e-21
-5.056413603e-21
-1.034194406e-21
-4.571720639e-21
-9.683433257e-22
-4.121458032e-21
-9.00398286e-22
-3.705674509e-21
-8.321666122e-22
-3.323716893e-21
-7.650712304e-22
-2.974403124e-21
-7.001921727e-22
-2.656170638e-21
-6.383134929e-22
-2.367200094e-21
-5.799709996e-22
-2.105515843e-21
-5.25497759e-22
-1.869065418e-21
-4.750655389e-22
-1.655780693e-21
-4.287212746e-22
-1.463623449e-21
-3.864182762e-22
-1.290617981e-21
-3.480423152e-22
-1.134873148e-21
-3.134329862e-22
-9.945959732e-22
-2.8240087e-22
-8.680986155e-22
-2.547410755e-22
-7.538002241e-22
-2.302437352e-22
-6.502249206e-22
-2.087019892e-22
-5.559969071e-22
-1.899179403e-22
-4.698334937e-22
-1.73707e-22
-3.905366535e-22
-1.599009847e-22
-3.169835749e-22
-1.483502601e-22
-2.481165643e-22
-1.389251857e-22
-1.829325979e-22
-1.315170582e-22
-1.204729276e-22
-1.260386899e-22
-5.981391543e-23
-1.224245297e-22
-1.206290408e-22
-1.197984362e-20
-2.760917952e-22
-7.585065329e-21
-6.090668479e-21
-7.136748643e-22
-9.120978353e-21
-1.126238122e-25
-2.835460555e-21
-2.988682242e-25
-3.539057732e-23
-7.050538811e-26
2.957739026e-25
-6.092947773e-19
3.595494472e-25
2.421836505e-18
-5.126213142e-19
-1.264259082e-20
-4.907981589e-24
-1.252208913e-20
-3.400423368e-22
-1.228729325e-20
-6.64674143e-22
-1.194771096e-20
-9.638566559e-22
-1.15164809e-20
-1.227785844e-21
-1.100918176e-20
-1.449577277e-21
-1.044261149e-20
-1.625440909e-21
-9.83367192e-21
-1.75450857e-21
-9.198453112e-21
-1.838403062e-21
-8.551562371e-21
-1.880661789e-21
-7.905700638e-21
-1.886119788e-21
-7.271459487e-21
-1.860331968e-21
-6.657295841e-21
-1.809084152e-21
-6.069636635e-21
-1.738015246e-21
-5.51306839e-21
-1.652352192e-21
-4.990573629e-21
-1.556746274e-21
-4.503784637e-21
-1.455192616e-21
-4.053233473e-21
-1.351012831e-21
-3.638584528e-21
-1.246881909e-21
-3.258841758e-21
-1.144883208e-21
-2.912527125e-21
-1.046578749e-21
-2.597829811e-21
-9.530853647e-22
-2.312727714e-21
-8.651501486e-22
-2.055083859e-21
-7.832210321e-22
-1.822720922e-21
-7.075101352e-22
-1.613477125e-21
-6.380488446e-22
-1.425246687e-21
-5.747344724e-22
-1.256007706e-21
-5.173689107e-22
-1.103840008e-21
-4.656900256e-22
-9.669351303e-22
-4.193966873e-22
-8.436002417e-22
-3.781683715e-22
-7.322574894e-22
-3.416802341e-22
-6.314399493e-22
-3.096144861e-22
-5.397851265e-22
-2.816688015e-22
-4.560267306e-22
-2.57562388e-22
-3.789852811e-22
-2.370402523e-22
-3.075579573e-22
-2.19876101e-22
-2.40708001e-22
-2.058742316e-22
-1.77453902e-22
-1.948706931e-22
-1.168585397e-22
-1.867339083e-22
-5.801827673e-23
-1.813648411e-22
-1.786967234e-22
-5.393050389e-21
-2.63237913e-22
-9.865553992e-21
-2.52091732e-22
-5.053469425e-21
-4.238555851e-21
-3.834432019e-22
-6.442850977e-21
-3.794633837e-24
-1.675879892e-21
-2.412632565e-25
1.693364102e-24
-1.147408728e-19
5.011715412e-25
4.512991362e-19
-9.588022192e-19
-1.298045039e-20
-6.737327577e-24
-1.284666254e-20
-4.738338788e-22
-1.258642677e-20
-9.249177684e-22
-1.221160574e-20
-1.338689742e-21
-1.173825338e-20
-1.701154284e-21
-1.118504104e-20
-2.002809659e-21
-1.057168725e-20
-2.238818664e-21
-9.91758408e-21
-2.408639576e-21
-9.240735995e-21
-2.5152828e-21
-8.557048128e-21
-2.564385065e-21
-7.879941732e-21
-2.563265279e-21
-7.220239854e-21
-2.520076549e-21
-6.586253061e-21
-2.443117178e-21
-5.983996832e-21
-2.340321148e-21
-5.417482444e-21
-2.218919601e-21
-4.889036577e-21
-2.085248412e-21
-4.399618225e-21
-1.944670386e-21
-3.949112969e-21
-1.801580545e-21
-3.536593638e-21
-1.659466626e-21
-3.160542884e-21
-1.521002166e-21
-2.819037477e-21
-1.388155058e-21
-2.509896836e-21
-1.262299487e-21
-2.230799659e-21
-1.144323266e-21
-1.97937312e-21
-1.034725847e-21
-1.753259119e-21
-9.337046221e-22
-1.550161764e-21
-8.412287711e-22
-1.367879816e-21
-7.571009493e-22
-1.204327316e-21
-6.810077706e-22
-1.057545068e-21
-6.125603378e-22
-9.257051909e-22
-5.513262049e-22
-8.071105159e-22
-4.968541355e-22
-7.001902302e-22
-4.486929299e-22
-6.034928611e-22
-4.064054596e-22
-5.156774383e-22
-3.695788962e-22
-4.355034638e-22
-3.378319755e-22
-3.618201515e-22
-3.108199929e-22
-2.935552683e-22
-2.882381024e-22
-2.297038048e-22
-2.698233782e-22
-1.693166221e-22
-2.553559988e-22
-1.114891387e-22
-2.446598298e-22
-5.534999172e-23
-2.376026155e-22
-2.340960076e-22
-1.770935109e-22
-2.197887514e-22
-2.71823906e-21
-2.505971858e-22
-6.836169207e-21
-1.988950904e-22
-3.43899864e-21
-4.711940941e-21
-2.445021078e-24
-4.343529705e-21
-1.781061329e-25
-3.024855908e-23
-2.022013295e-19
7.26770428e-25
-3.908548868e-18
-1.580456931e-18
-1.345111211e-20
-8.006905602e-24
-1.329766619e-20
-6.272835025e-22
-1.300012882e-20
-1.22246298e-21
-1.257402278e-20
-1.764807817e-21
-1.203988456e-20
-2.235308567e-21
-1.142104732e-20
-2.621666924e-21
-1.074152319e-20
-2.918366732e-21
-1.002425546e-20
-3.12593511e-21
-9.289874825e-21
-3.249695053e-21
-8.555969082e-21
-3.298326179e-21
-7.836794473e-21
-3.282478941e-21
-7.143320137e-21
-3.213593544e-21
-6.483493175e-21
-3.102990323e-21
-5.862626957e-21
-2.961236987e-21
-5.283838064e-21
-2.797761458e-21
-4.748480523e-21
-2.620662163e-21
-4.256545822e-21
-2.436664441e-21
-3.807012418e-21
-2.25117634e-21
-3.398139018e-21
-2.068405343e-21
-3.027702649e-21
-1.891506665e-21
-2.693186347e-21
-1.722742185e-21
-2.391923114e-21
-1.563636123e-21
-2.121203228e-21
-1.41511901e-21
-1.878351743e-21
-1.277655522e-21
-1.660782283e-21
-1.15135448e-21
-1.466032376e-21
-1.036061158e-21
-1.291784694e-21
-9.314330681e-22
-1.135877722e-21
-8.370010074e-22
-9.963086801e-22
-7.522173471e-22
-8.712308663e-22
-6.764935599e-22
-7.589471253e-22
-6.092288644e-22
-6.579006963e-22
-5.498316664e-22
-5.666643919e-22
-4.977352639e-22
-4.839287945e-22
-4.524090595e-22
-4.084899572e-22
-4.133663184e-22
-3.392369466e-22
-3.801693231e-22
-2.751394452e-22
-3.52432612e-22
-2.152355449e-22
-3.2982485e-22
-1.586197919e-22
-3.12069762e-22
-1.044314827e-22
-2.989464628e-22
-5.184316353e-23
-2.902894471e-22
-2.859884633e-22
-1.386011416e-22
-1.574714409e-22
-1.334979261e-22
-2.152848066e-22
-3.811679293e-21
-2.103244733e-22
-5.113848637e-21
-2.219405827e-22
-9.285793785e-22
-5.390950625e-21
1.530345575e-23
-1.660101905e-21
-7.255293919e-19
1.413741931e-24
-2.553296138e-18
-2.679537205e-18
-1.407442151e-20
-1.130409352e-23
-1.389273662e-20
-8.089720908e-22
-1.354237869e-20
-1.572828759e-21
-1.304446205e-20
-2.262736493e-21
-1.242621532e-20
-2.853571366e-21
-1.171774973e-20
-3.330152546e-21
-1.094911814e-20
-3.687022267e-21
-1.014805875e-20
-3.927022308e-21
-9.338559163e-21
-4.059226273e-21
-8.54017901e-21
-4.096741712e-21
-7.767965651e-21
-4.054731363e-21
-7.032769734e-21
-3.948832131e-21
-6.341786966e-21
-3.794019286e-21
-5.699191912e-21
-3.603881674e-21
-5.106772391e-21
-3.390233956e-21
-4.56450984e-21
-3.162980939e-21
-4.071078759e-21
-2.930154889e-21
-3.624257199e-21
-2.698060305e-21
-3.221251652e-21
-2.471476222e-21
-2.858945792e-21
-2.253880669e-21
-2.53408494e-21
-2.047673877e-21
-2.243408328e-21
-1.854386152e-21
-1.983740287e-21
-1.674862924e-21
-1.75204993e-21
-1.509424083e-21
-1.54548725e-21
-1.357997574e-21
-1.361401942e-21
-1.220228962e-21
-1.197349897e-21
-1.095569565e-21
-1.051091121e-21
-9.833460636e-22
-9.205818901e-22
-8.828145595e-22
-8.039632137e-22
-7.932017921e-22
-6.995470946e-22
-7.137359858e-22
-6.058016415e-22
-6.436694413e-22
-5.213357544e-22
-5.822946651e-22
-4.448838653e-22
-5.289555283e-22
-3.75291035e-22
-4.830546677e-22
-3.114985791e-22
-4.440581116e-22
-2.525303021e-22
-4.114979096e-22
-1.974793527e-22
-3.849733827e-22
-1.454956653e-22
-3.641514706e-22
-9.577391587e-23
-3.487665462e-22
-4.754190457e-23
-3.386199805e-22
-3.335796712e-22
-8.803723752e-23
-4.701379424e-23
-1.124183227e-22
-1.748382292e-22
-1.330097167e-22
-1.970641021e-22
-3.284041683e-21
-2.24753158e-22
-2.968268325e-21
-1.252982231e-21
-7.257267459e-24
-9.222100263e-22
-1.461145155e-18
8.657733335e-24
1.374226212e-18
-5.588226937e-18
-1.487852306e-20
-1.88402849e-23
-1.465644677e-20
-1.031052087e-21
-1.423216091e-20
-1.997122466e-21
-1.363522103e-20
-2.859688425e-21
-1.290276918e-20
-3.586039292e-21
-1.20746336e-20
-4.158308164e-21
-1.118916348e-20
-4.572516342e-21
-1.028032819e-20
-4.83588542e-21
-9.376150361e-21
-4.963435747e-21
-8.498246802e-21
-4.974680666e-21
-7.662141264e-21
-4.89087598e-21
-6.878024811e-21
-4.732991271e-21
-6.151708413e-21
-4.520381898e-21
-5.48559371e-21
-4.270046029e-21
-4.879559532e-21
-3.99632113e-21
-4.331715313e-21
-3.710881403e-21
-3.839008071e-21
-3.42292152e-21
-3.39769051e-21
-3.139440293e-21
-3.003668103e-21
-2.865563983e-21
-2.652746656e-21
-2.604870283e-21
-2.340801445e-21
-2.359689951e-21
-2.063886703e-21
-2.131374336e-21
-1.818301088e-21
-1.920524436e-21
-1.600621651e-21
-1.72718175e-21
-1.407715898e-21
-1.550983765e-21
-1.23673918e-21
-1.391288202e-21
-1.085122678e-21
-1.247270544e-21
-9.505557518e-22
-1.117999296e-21
-8.309652651e-22
-1.002493054e-21
-7.244936701e-22
-8.997629689e-22
-6.294770135e-22
-8.088436709e-22
-5.444235854e-22
-7.288152171e-22
-4.679936314e-22
-6.588181591e-22
-3.989803354e-22
-5.980634297e-22
-3.362921396e-22
-5.458384081e-22
-2.789363741e-22
-5.015102347e-22
-2.260041102e-22
-4.645272189e-22
-1.766561127e-22
-4.344189879e-22
-1.301097479e-22
-4.107958803e-22
-8.562668977e-23
-3.933479619e-22
-4.250126558e-23
-3.8184395e-22
-3.761302529e-22
-4.251172537e-23
-1.868752875e-24
-8.072768789e-23
-1.051417121e-22
-1.156539202e-22
-1.336818707e-22
-3.526268289e-22
-7.846485748e-22
-9.253103167e-22
-1.067480326e-21
-6.905357572e-23
-6.023231816e-22
-1.639070096e-18
-7.031168236e-23
3.271579969e-18
-7.234769814e-18
-1.590173832e-20
-2.812311637e-23
-1.56222949e-20
-1.310499211e-21
-1.509456341e-20
-2.524861817e-21
-1.436148255e-20
-3.592781334e-21
-1.347501809e-20
-4.472519835e-21
-1.248887779e-20
-5.144468513e-21
-1.145260756e-20
-5.608810537e-21
-1.0407976e-20
-5.880544822e-21
-9.387501486e-21
-5.983941913e-21
-8.41454691e-21
-5.947670652e-21
-7.504353294e-21
-5.80110869e-21
-6.665500406e-21
-5.571886863e-21
-5.901444218e-21
-5.284484317e-21
-5.211927177e-21
-4.959612741e-21
-4.594165778e-21
-4.614135547e-21
-4.043790427e-21
-4.261313019e-21
-3.55555248e-21
-3.911218878e-21
-3.123832094e-21
-3.571223128e-21
-2.742986061e-21
-3.246475393e-21
-2.407573085e-21
-2.940351451e-21
-2.11248884e-21
-2.654845085e-21
-1.853037014e-21
-2.390899628e-21
-1.624956593e-21
-2.14868078e-21
-1.424420459e-21
-1.927796141e-21
-1.248016215e-21
-1.727468474e-21
-1.092716866e-21
-1.546670099e-21
-9.558465248e-22
-1.384225389e-21
-8.350445676e-22
-1.238887586e-21
-7.282303546e-22
-1.109395302e-21
-6.335697735e-22
-9.945131596e-22
-5.494442635e-22
-8.930602371e-22
-4.744225829e-22
-8.039292732e-22
-4.072353397e-22
-7.2609897e-22
-3.4675215e-22
-6.586412524e-22
-2.919612083e-22
-6.007249218e-22
-2.419510068e-22
-5.516168211e-22
-1.958939312e-22
-5.106813666e-22
-1.530314557e-22
-4.773790975e-22
-1.126606733e-22
-4.512647337e-22
-7.412190995e-23
-4.319851086e-22
-3.678718557e-23
-4.192772451e-22
-4.12966768e-22
-1.695436598e-24
-2.269990406e-27
-3.727225665e-23
-4.237272618e-23
-2.379863217e-22
-9.275991595e-23
-5.603486784e-22
-1.031430856e-23
-4.296925599e-22
-1.464644424e-21
-1.412054481e-22
-1.602004041e-21
-5.644766942e-20
-1.781187948e-22
2.526190992e-18
-3.743157695e-18
-1.720007158e-20
-3.716253865e-23
-1.683632127e-20
-1.674253239e-21
-1.616227425e-20
-3.198916688e-21
-1.524112297e-20
-4.51394468e-21
-1.414696755e-20
-5.566691337e-21
-1.295329465e-20
-6.338161476e-21
-1.172446305e-20
-6.837666114e-21
-1.051151631e-20
-7.093519409e-21
-9.351377023e-21
-7.144112868e-21
-8.26812304e-21
-7.030960059e-21
-7.275253825e-21
-6.794017016e-21
-6.378201398e-21
-6.468982011e-21
-5.576656952e-21
-6.086075013e-21
-4.866516283e-21
-5.6698031e-21
-4.241393623e-21
-5.239311245e-21
-3.693733141e-21
-4.809029787e-21
-3.215582486e-21
-4.389428966e-21
-2.799101245e-21
-3.987766842e-21
-2.436872095e-21
-3.608769945e-21
-2.122071443e-21
-3.255220318e-21
-1.848544216e-21
-2.928443226e-21
-1.61081621e-21
-2.628701126e-21
-1.404068072e-21
-2.355504867e-21
-1.224087656e-21
-2.10785484e-21
-1.067211966e-21
-1.884424656e-21
-9.302659248e-22
-1.683698716e-21
-8.105024172e-22
-1.504073429e-21
-7.055461086e-22
-1.343930257e-21
-6.133423086e-22
-1.201687166e-21
-5.32111316e-22
-1.07583379e-21
-4.603081941e-22
-9.649544436e-22
-3.965876403e-22
-8.677422309e-22
-3.397734669e-22
-7.830067393e-22
-2.888321543e-22
-7.096772261e-22
-2.428499302e-22
-6.468027458e-22
-2.010128554e-22
-5.935503085e-22
-1.62589436e-22
-5.492018858e-22
-1.269153263e-22
-5.131508688e-22
-9.337973347e-23
-4.848984247e-22
-6.141317469e-23
-4.640500774e-22
-3.047627406e-23
-4.50312743e-22
-4.434923852e-22
3.540766045e-27
2.627026114e-28
-1.142356814e-23
-4.397940985e-25
-3.226711351e-24
-3.039899103e-23
-5.686280305e-22
-8.439830592e-24
-8.918929063e-22
-8.055536015e-22
-1.528454717e-22
-4.810393118e-22
-1.285901368e-18
-2.340285001e-22
-7.827939717e-18
-6.562109437e-16
-1.885795995e-20
-1.597001203e-22
-1.836054663e-20
-2.17167025e-21
-1.74770392e-20
-4.082431986e-21
-1.629377453e-20
-5.697221411e-21
-1.4918484e-20
-6.941997962e-21
-1.345294059e-20
-7.803724941e-21
-1.198050808e-20
-8.310122617e-21
-1.056231717e-20
-8.511738176e-21
-9.238423887e-21
-8.468037837e-21
-8.031358424e-21
-8.238060961e-21
-6.950369887e-21
-7.87504468e-21
-5.995416923e-21
-7.423977713e-21
-5.160480764e-21
-6.92105744e-21
-4.436096587e-21
-6.394236986e-21
-3.811164527e-21
-5.864296363e-21
-3.274168622e-21
-5.346081999e-21
-2.813944006e-21
-4.849713037e-21
-2.42011827e-21
-4.381655073e-21
-2.083329104e-21
-3.945624535e-21
-1.795295671e-21
-3.543321991e-21
-1.548799678e-21
-3.175010156e-21
-1.337614959e-21
-2.839959364e-21
-1.156411417e-21
-2.536784384e-21
-1.000649899e-21
-2.263694667e-21
-8.664780106e-22
-2.018677064e-21
-7.506325482e-22
-1.799626781e-21
-6.50351337e-22
-1.6044392e-21
-5.63295468e-22
-1.431072515e-21
-4.874818558e-22
-1.27758887e-21
-4.212254364e-22
-1.142179876e-21
-3.630900305e-22
-1.023180963e-21
-3.118467959e-22
-9.190778978e-22
-2.664391997e-22
-8.2850796e-22
-2.259535096e-22
-7.502576059e-22
-1.895939033e-22
-6.832579805e-22
-1.566614001e-22
-6.265792527e-22
-1.265359251e-22
-5.794244886e-22
-9.866091014e-23
-5.411235731e-22
-7.252992094e-23
-5.111275397e-22
-4.767487018e-23
-4.890035656e-22
-2.365543335e-23
-4.744308042e-22
-4.671971756e-22
-2.398887933e-49
-1.849224712e-50
1.773008474e-24
8.580345706e-25
-1.626003559e-24
-7.086769e-24
-1.498532144e-22
-3.602841671e-24
-2.127274947e-22
-6.913278265e-24
-5.288772695e-23
-1.557871697e-23
-1.097733928e-15
-2.191230561e-22
-2.731105287e-17
-1.942138254e-15
-2.090284283e-20
-1.285026738e-22
-2.027045279e-20
-2.804063993e-21
-1.909145772e-20
-5.261434915e-21
-1.753848538e-20
-7.250205819e-21
-1.578034908e-20
-8.700150361e-21
-1.395959059e-20
-9.624503496e-21
-1.218242067e-20
-1.008731654e-20
-1.051891184e-20
-1.017527488e-20
-9.008713084e-21
-9.978268286e-21
-7.668567032e-21
-9.578242466e-21
-6.49948389e-21
-9.044166964e-21
-5.492636419e-21
-8.430867938e-21
-4.633764224e-21
-7.779975921e-21
-3.906230215e-21
-7.121820722e-21
-3.293000778e-21
-6.477578877e-21
-2.777832007e-21
-5.861307099e-21
-2.34590464e-21
-5.28169988e-21
-1.984096249e-21
-4.743525982e-21
-1.681027885e-21
-4.248758347e-21
-1.426980197e-21
-3.797437944e-21
-1.213741968e-21
-3.388319348e-21
-1.034431033e-21
-3.019343842e-21
-8.833116395e-22
-2.687979778e-21
-7.556217768e-22
-2.391462866e-21
-6.474172079e-22
-2.126962179e-21
-5.55434761e-22
-1.891691858e-21
-4.769749652e-22
-1.682983583e-21
-4.098027826e-22
-1.498331115e-21
-3.520645404e-22
-1.335415232e-21
-3.022189535e-22
-1.192115157e-21
-2.589801533e-22
-1.066510904e-21
-2.212707913e-22
-9.568797207e-22
-1.881835022e-22
-8.616889021e-22
-1.589492357e-22
-7.795865904e-22
-1.329111913e-22
-7.093916817e-22
-1.095032859e-22
-6.500836273e-22
-8.823226507e-23
-6.007926654e-22
-6.866271293e-23
-5.607908425e-22
-5.040434279e-23
-5.294840634e-22
-3.310104853e-23
-5.064053248e-22
-1.642127729e-23
-4.912092273e-22
-4.836678236e-22
-3.271831122e-54
-2.459005465e-55
8.756015117e-45
3.472856012e-45
-1.673212752e-25
2.227843466e-24
-1.843284211e-24
-1.765675591e-24
-5.980789613e-24
-5.220589549e-23
2.574328202e-23
-1.163998408e-21
-3.146111689e-15
-4.610730774e-22
-2.461681049e-17
-3.281221505e-17
-2.364964951e-20
-1.552704348e-22
-2.272695771e-20
-3.726759509e-21
-2.107987691e-20
-6.908523585e-21
-1.898849521e-20
-9.341599588e-21
-1.670502166e-20
-1.098364001e-20
-1.442283647e-20
-1.190670877e-20
-1.227082808e-20
-1.223934893e-20
-1.032231476e-20
-1.212381609e-20
-8.60903202e-21
-1.169158274e-20
-7.134765638e-21
-1.105254431e-20
-5.886393029e-21
-1.029257873e-20
-4.841896082e-21
-9.475407657e-21
-3.975714943e-21
-8.646203362e-21
-3.262058688e-21
-7.835526723e-21
-2.676772504e-21
-7.062918158e-21
-2.198248658e-21
-6.339887293e-21
-1.807740628e-21
-5.672267408e-21
-1.489328836e-21
-5.062000313e-21
-1.229701269e-21
-4.508451384e-21
-1.017851319e-21
-4.009356181e-21
-8.447538112e-22
-3.561487843e-21
-7.03053155e-22
-3.161118065e-21
-5.867805776e-22
-2.804328382e-21
-4.911071652e-22
-2.48721464e-21
-4.12133549e-22
-2.206016368e-21
-3.467139578e-22
-1.957194106e-21
-2.923109035e-22
-1.737471252e-21
-2.468762974e-22
-1.543852166e-21
-2.087548671e-22
-1.37362481e-21
-1.766060882e-22
-1.224353658e-21
-1.493413072e-22
-1.093866855e-21
-1.260732143e-22
-9.802403025e-22
-1.060752858e-22
-8.817805117e-22
-8.874922486e-23
-7.970073976e-22
-7.359878866e-23
-7.246378027e-22
-6.020868475e-23
-6.635702284e-22
-4.822747198e-23
-6.12871062e-22
-3.735359908e-23
-5.717624604e-22
-2.732387746e-23
-5.396119661e-22
-1.790381138e-23
-5.159238834e-22
-8.879307191e-24
-5.003324106e-22
-4.925965149e-22
-2.348880306e-58
-2.169561026e-59
0
0
4.706227054e-24
3.869128804e-24
-8.839706525e-24
-3.474111306e-25
-3.818178933e-22
-1.791300266e-23
-1.130254028e-22
-3.547427257e-23
-3.858637413e-17
-4.139201995e-23
7.467442192e-19
-7.479447746e-17
-2.738070328e-20
-5.423440805e-22
-2.590791647e-20
-5.199550021e-21
-2.351274062e-20
-9.303707305e-21
-2.063089436e-20
-1.222345792e-20
-1.76287319e-20
-1.398581858e-20
-1.475618713e-20
-1.477927363e-20
-1.21559522e-20
-1.483960786e-20
-9.890630726e-21
-1.438916546e-20
-7.97042296e-21
-1.361182222e-20
-6.3751187e-21
-1.264788405e-20
-5.069447882e-21
-1.159828872e-20
-4.01284466e-21
-1.053205367e-20
-3.165136069e-21
-9.493958272e-21
-2.489507724e-21
-8.511204833e-21
-1.953770847e-21
-7.598708151e-21
-1.530638516e-21
-6.763075993e-21
-1.197470385e-21
-6.005495057e-21
-9.357686045e-22
-5.323764654e-21
-7.305899462e-22
-4.713695535e-21
-5.699643507e-22
-4.170050086e-21
-4.443644501e-22
-3.687158754e-21
-3.46243958e-22
-3.259312149e-21
-2.696480384e-22
-2.881000353e-21
-2.098911998e-22
-2.547049865e-21
-1.63294908e-22
-2.252693257e-21
-1.269761283e-22
-1.993595569e-21
-9.867825958e-23
-1.765853762e-21
-7.663676514e-23
-1.565980132e-21
-5.94728578e-23
-1.390876892e-21
-4.610966538e-23
-1.2378066e-21
-3.570628849e-23
-1.104361429e-21
-2.760602399e-23
-9.884330834e-22
-2.129575652e-23
-8.881844878e-22
-1.637412309e-23
-8.020238048e-22
-1.252654679e-23
-7.285810913e-22
-9.505629568e-24
-6.666876703e-22
-7.115708375e-24
-6.153581944e-22
-5.200626579e-24
-5.737753145e-22
-3.633965883e-24
-5.412768351e-22
-2.311133574e-24
-5.173452351e-22
-1.142813217e-24
-5.015994369e-22
-4.937887254e-22
0
0
1.264177042e-56
6.470483938e-60
9.96856566e-27
3.241996051e-27
-1.437224877e-25
5.441883252e-25
-9.203679647e-24
-1.181068958e-23
-1.175323923e-23
-4.087798696e-23
-6.284376778e-17
-2.525855165e-23
2.317708999e-26
-1.091228246e-18
-3.236078869e-20
-1.066511626e-21
-3.001095681e-20
-7.549385603e-21
-2.643262284e-20
-1.288204915e-20
-2.239419428e-20
-1.626189856e-20
-1.842336405e-20
-1.795666492e-20
-1.481763222e-20
-1.838502554e-20
-1.170642887e-20
-1.795083523e-20
-9.113989004e-21
-1.698163323e-20
-7.006989589e-21
-1.571885336e-20
-5.325868594e-21
-1.432904054e-20
-4.003436864e-21
-1.292075963e-20
-2.974885395e-21
-1.156064794e-20
-2.182457297e-21
-1.02864327e-20
-1.577044152e-21
-9.116667758e-21
-1.118144676e-21
-8.057660759e-21
-7.730466155e-22
-7.108230441e-21
-5.157190645e-22
-6.262882145e-21
-3.256733182e-22
-5.513872981e-21
-1.869161654e-22
-4.852518201e-21
-8.704448279e-23
-4.2699901e-21
-1.649030404e-23
-3.757783965e-21
3.209369944e-23
-3.307969767e-21
6.432628117e-23
-2.913309009e-21
8.448707946e-23
-2.567289075e-21
9.582229266e-23
-2.264109093e-21
1.007831147e-22
-1.998639099e-21
1.01210857e-22
-1.76636617e-21
9.848016109e-23
-1.563335934e-21
9.360947141e-23
-1.386094403e-21
8.734604689e-23
-1.231632952e-21
8.023124111e-23
-1.097337846e-21
7.265053e-23
-9.809449151e-22
6.487177559e-23
-8.804994685e-22
5.707443321e-23
-7.943212627e-22
4.937180052e-23
-7.209741975e-22
4.182793269e-23
-6.592403536e-22
3.447048226e-23
-6.080979816e-22
2.730044019e-23
-5.66703071e-22
2.029953934e-23
-5.343741686e-22
1.343591809e-23
-5.105801593e-22
6.668520015e-24
-4.949307706e-22
-4.871696151e-22
2.759046021e-38
7.590605354e-40
1.344590771e-35
6.837491723e-36
1.38945084e-35
5.82628649e-36
7.538762959e-25
7.610305077e-25
-6.21089329e-24
-7.241553491e-25
-5.111415526e-24
-2.480798744e-23
-4.110501053e-19
-5.713904212e-24
7.927031752e-29
-4.228367211e-19
-3.942840915e-20
-2.25378781e-21
-3.534317403e-20
-1.163462442e-20
-2.981380353e-20
-1.841142752e-20
-2.409104925e-20
-2.198466492e-20
-1.885374193e-20
-2.319398836e-20
-1.438507903e-20
-2.285370854e-20
-1.073843411e-20
-2.159750418e-20
-7.852042164e-21
-1.986805308e-20
-5.61771992e-21
-1.795320735e-20
-3.917921158e-21
-1.602887481e-20
-2.643514031e-21
-1.419520595e-20
-1.700763102e-21
-1.250344168e-20
-1.01272401e-21
-1.097451815e-20
-5.180313327e-22
-9.611410232e-21
-1.686869449e-22
-8.407058296e-21
7.234035251e-23
-7.349314142e-21
2.333334944e-22
-6.423934843e-21
3.357255804e-22
-5.616327667e-21
3.956544444e-22
-4.912512598e-21
4.252012922e-22
-4.2996053e-21
4.333600797e-22
-3.766013807e-21
4.267870153e-22
-3.301470338e-21
4.103752158e-22
-2.896973306e-21
3.87692708e-22
-2.544685e-21
3.613148491e-22
-2.237811879e-21
3.330758128e-22
-1.970482794e-21
3.04258362e-22
-1.73763341e-21
2.757367341e-22
-1.534900827e-21
2.480839899e-22
-1.358529883e-21
2.216524726e-22
-1.205291235e-21
1.966339445e-22
-1.072410566e-21
1.731043772e-22
-9.575079156e-22
1.510571613e-22
-8.585460129e-22
1.304275876e-22
-7.737865144e-22
1.111107527e-22
-7.017531267e-22
9.297452444e-23
-6.412007016e-22
7.586879985e-23
-5.910895197e-22
5.963199788e-23
-5.505640926e-22
4.409549992e-23
-5.189359301e-22
2.908658862e-23
-4.956698182e-22
1.443031081e-23
-4.803732492e-22
-4.727887256e-22
4.938248947e-39
1.155315469e-40
1.378838582e-32
2.97861248e-33
1.423581489e-32
6.127447146e-33
2.716029473e-25
7.500541089e-26
1.502378358e-24
4.678345977e-24
-6.862906376e-25
-4.461714541e-25
-1.999157413e-19
-6.378268194e-41
-2.199304128e-17
-1.398185677e-18
-4.976419446e-20
-5.747675817e-21
-4.212243681e-20
-1.927638578e-20
-3.339122669e-20
-2.714264551e-20
-2.530443932e-20
-3.007146438e-20
-1.85166296e-20
-2.998181421e-20
-1.31310886e-20
-2.823926964e-20
-9.010423148e-21
-2.571819366e-20
-5.93807677e-21
-2.294042738e-20
-3.693888756e-21
-2.019742711e-20
-2.084508962e-21
-1.763829011e-20
-9.518547466e-22
-1.532789938e-20
-1.718546536e-22
-1.32834846e-20
3.504190628e-22
-1.149683822e-20
6.86381253e-22
-9.947422233e-21
8.891283645e-22
-8.609858572e-21
9.977925768e-22
-7.458034775e-21
1.041010545e-21
-6.467212383e-21
1.039605055e-21
-5.614984794e-21
1.008619691e-21
-4.881592785e-21
9.58844117e-22
-4.249898097e-21
8.979485508e-22
-3.705189314e-21
8.313232327e-22
-3.234918676e-21
7.626974864e-22
-2.828423677e-21
6.945951827e-22
-2.476661151e-21
6.28669255e-22
-2.171966619e-21
5.659470098e-22
-1.907843302e-21
5.070097191e-22
-1.678780832e-21
4.521238241e-22
-1.480101476e-21
4.013365093e-22
-1.307830816e-21
3.545450407e-22
-1.15858959e-21
3.115467805e-22
-1.029503577e-21
2.72074971e-22
-9.181286973e-22
2.358240407e-22
-8.223888663e-22
2.024672006e-22
-7.405245234e-22
1.716683761e-22
-6.710500898e-22
1.430899835e-22
-6.12718909e-22
1.163976692e-22
-5.644944916e-22
9.12628363e-23
-5.255271069e-22
6.736357419e-23
-4.951349507e-22
4.438444501e-23
-4.727892825e-22
2.201547201e-23
-4.581030558e-22
-4.508226856e-22
0
0
1.257367159e-33
7.604044148e-36
2.146874922e-32
6.71132245e-33
2.342146699e-32
9.106509193e-33
2.278460181e-24
1.93441003e-24
1.919228593e-30
7.924228034e-28
-4.450996901e-19
1.645078668e-29
-3.697129438e-17
-3.933635274e-19
-6.471699921e-20
-1.706086995e-20
-4.9999901e-20
-3.39934877e-20
-3.632963079e-20
-4.08129236e-20
-2.522161722e-20
-4.117949005e-20
-1.677845964e-20
-3.842498793e-20
-1.061262458e-20
-3.44051248e-20
-6.234116224e-21
-3.009672606e-20
-3.195823401e-21
-2.597874813e-20
-1.135077095e-21
-2.225820517e-20
2.25795044e-22
-1.899919777e-20
1.092600712e-21
-1.619474427e-20
1.61489419e-21
-1.380582091e-20
1.899961812e-21
-1.178195222e-20
2.024075396e-21
-1.007158564e-20
2.041075807e-21
-8.626912161e-21
1.988726973e-21
-7.405742375e-21
1.893336913e-21
-6.371881911e-21
1.773082745e-21
-5.49479326e-21
1.64038793e-21
-4.748963538e-21
1.503615635e-21
-4.11319419e-21
1.368272499e-21
-3.569917268e-21
1.237863447e-21
-3.104583299e-21
1.114498333e-21
-2.7051347e-21
9.993221982e-22
-2.36156349e-21
8.928201233e-22
-2.06554523e-21
7.950328678e-22
-1.810138819e-21
7.057089457e-22
-1.589541642e-21
6.2441138e-22
-1.398890475e-21
5.505921065e-22
-1.234099811e-21
4.836432734e-22
-1.091730601e-21
4.229320399e-22
-9.688836359e-22
3.678235995e-22
-8.631128696e-22
3.176958111e-22
-7.72354883e-22
2.719478671e-22
-6.9487145e-22
2.300047391e-22
-6.29202771e-22
1.913186493e-22
-5.741294407e-22
1.553684627e-22
-5.286416129e-22
1.21657636e-22
-4.919141487e-22
8.971117747e-23
-4.632867963e-22
5.907193961e-23
-4.422486595e-22
2.92964696e-23
-4.284263865e-22
-4.215756575e-22
-3.231262584e-67
-1.691949487e-68
1.963462677e-35
2.96627457e-36
1.03623045e-31
2.740163288e-32
8.871337089e-32
2.893419025e-32
6.139951643e-32
1.42825184e-32
0
-7.734143631e-43
-6.756740268e-20
1.757544358e-29
-1.909822114e-17
-2.833117823e-19
-8.361646766e-20
-4.865182021e-20
-5.684749428e-20
-6.076246479e-20
-3.671287348e-20
-6.094755227e-20
-2.247640756e-20
-5.541596808e-20
-1.276348983e-20
-4.81379218e-20
-6.306626218e-21
-4.086200852e-20
-2.117176631e-21
-3.42861997e-20
5.243971853e-22
-2.862034988e-20
2.123964155e-21
-2.385780391e-20
3.030443081e-21
-1.990571223e-20
3.481776116e-21
-1.664611653e-20
3.639020469e-21
-1.396310811e-20
3.610567346e-21
-1.175354549e-20
3.468959774e-21
-9.930027902e-21
3.262426541e-21
-8.420432118e-21
3.022740114e-21
-7.166112396e-21
2.770553126e-21
-6.119754524e-21
2.519018459e-21
-5.24332124e-21
2.276245119e-21
-4.506255781e-21
2.046965306e-21
-3.88398278e-21
1.833666758e-21
-3.356689827e-21
1.637362087e-21
-2.908352318e-21
1.458111166e-21
-2.525959931e-21
1.295375164e-21
-2.198905978e-21
1.148255548e-21
-1.918506318e-21
1.015654361e-21
-1.677620423e-21
8.963805399e-22
-1.470352572e-21