/*--------------------------------*- C++ -*----------------------------------*\
  =========                 |
  \\      /  F ield         | OpenFOAM: The Open Source CFD Toolbox
   \\    /   O peration     | Website:  https://openfoam.org
    \\  /    A nd           | Version:  6
     \\/     M anipulation  |
\*---------------------------------------------------------------------------*/
FoamFile
{
    version     2.0;
    format      ascii;
    class       volVectorField;
    location    "0.14";
    object      gradT;
}
// * * * * * * * * * * * * * * * * * * * * * * * * * * * * * * * * * * * * * //

dimensions      [0 -1 0 1 0 0 0];

internalField   nonuniform List<vector> 
2500
(
(0 -1800.740206 33311.16377)
(0 -4225.54905 29318.10532)
(0 -4388.280318 23198.30122)
(0 -3471.001606 16956.55316)
(0 -2675.954019 11454.76581)
(0 -2146.681625 7089.349737)
(0 -1860.975691 3440.738807)
(0 -904.5929903 156.6731502)
(0 -28.84949229 75.50401814)
(0 -11.47218579 48.21964064)
(0 -7.377469803 30.24409383)
(0 -4.689867235 18.59786133)
(0 -2.923142217 11.2046764)
(0 -1.782001892 6.611555013)
(0 -1.062092516 3.819317337)
(0 -0.6189591 2.158390952)
(0 -0.3526979259 1.192009411)
(0 -0.1964332104 0.6424765167)
(0 -0.1068385494 0.337450043)
(0 -0.05667522541 0.172449568)
(0 -0.02927810769 0.08561991364)
(0 -0.01470515416 0.04124637859)
(0 -0.007169723323 0.01925933861)
(0 -0.003388955293 0.008709801639)
(0 -0.001551360513 0.003813056361)
(0 -0.0006872871921 0.001615598221)
(0 -0.0002945550015 0.0006624889379)
(0 -0.0001221065756 0.0002629495671)
(0 -4.896730408e-05 0.0001010529129)
(0 -1.900021956e-05 3.761729788e-05)
(0 -7.138228991e-06 1.356810315e-05)
(0 -2.597991221e-06 4.741784554e-06)
(0 -9.138073779e-07 1.607621477e-06)
(0 -3.102022882e-07 5.277485835e-07)
(0 -1.012204372e-07 1.689360156e-07)
(0 -3.08225878e-08 5.759824041e-08)
(0 -8.093870385e-09 2.526981626e-08)
(0 -8.140927771e-09 1.284666637e-08)
(0 -1.00702806e-08 -1.458778965e-09)
(0 -3.529303947e-09 -1.37407567e-08)
(0 -9.411477192e-11 -1.477601919e-08)
(0 2.494041456e-09 -1.604656861e-08)
(0 6.305689718e-09 -1.016439537e-08)
(0 4.89396814e-09 -3.764590877e-10)
(0 8.940903332e-10 5.835115859e-09)
(0 -9.411477192e-11 6.588034034e-09)
(0 4.705738596e-11 6.540976648e-09)
(0 9.411477192e-11 6.63509142e-09)
(0 -1.458778965e-09 6.63509142e-09)
(0 -2.776385772e-09 3.105787473e-09)
(0 -2192.31825 18317.66855)
(0 -5887.313509 18239.66797)
(0 -7973.27184 17095.7735)
(0 -8272.533795 14121.97972)
(0 -7191.249403 10107.54282)
(0 -5867.345382 6369.71886)
(0 -5071.700896 3161.067254)
(0 -2460.641799 153.5496458)
(0 -79.60401731 79.16425759)
(0 -33.78773852 52.36116076)
(0 -22.2443095 33.96670256)
(0 -14.34955019 21.63737648)
(0 -9.0631641 13.52924884)
(0 -5.603357172 8.2924478)
(0 -3.391071544 4.972973172)
(0 -2.008348826 2.911616949)
(0 -1.16321651 1.660636937)
(0 -0.6581261572 0.9207286088)
(0 -0.3631883994 0.495346552)
(0 -0.1951549039 0.2581967011)
(0 -0.1019250816 0.1302416338)
(0 -0.05165542093 0.06352539897)
(0 -0.02536685362 0.02994469547)
(0 -0.01205732695 0.0136383818)
(0 -0.005542842952 0.006001670582)
(0 -0.002463280231 0.002552261042)
(0 -0.001058093652 0.001049215806)
(0 -0.0004393294023 0.0004171352568)
(0 -0.0001763650122 0.0001604691684)
(0 -6.84845902e-05 5.976904468e-05)
(0 -2.573723727e-05 2.156385889e-05)
(0 -9.362490453e-06 7.545793011e-06)
(0 -3.300181535e-06 2.559827681e-06)
(0 -1.128577287e-06 8.418566348e-07)
(0 -3.688357911e-07 2.674271244e-07)
(0 -1.128906689e-07 8.235042543e-08)
(0 -3.670476105e-08 2.771680033e-08)
(0 -1.854061007e-08 6.39980449e-09)
(0 -1.651714247e-08 2.776385772e-09)
(0 -9.787936279e-09 2.352869298e-10)
(0 -2.21169714e-09 -5.646886315e-09)
(0 2.070524982e-09 -5.882173245e-09)
(0 9.31736242e-09 -4.799853368e-09)
(0 1.119965786e-08 -8.282099929e-09)
(0 6.023345403e-09 -6.588034034e-10)
(0 8.470329473e-10 2.541098842e-09)
(0 -4.705738596e-11 2.588156228e-09)
(0 0 2.258754526e-09)
(0 -2.070524982e-09 2.399926684e-09)
(0 -6.964493122e-09 3.670476105e-09)
(0 -1878.74078 10723.42865)
(0 -5447.444093 11418.84882)
(0 -8505.968575 12065.71209)
(0 -10459.23229 11651.67421)
(0 -10428.21488 9463.22099)
(0 -9093.157193 6278.889732)
(0 -8077.144905 3247.988072)
(0 -3986.495987 168.0035756)
(0 -130.0379774 91.56133186)
(0 -56.66974082 63.5568997)
(0 -38.10125409 43.50813756)
(0 -25.12732096 29.31123039)
(0 -16.26807089 19.3688154)
(0 -10.33827756 12.50579075)
(0 -6.442923367 7.860511199)
(0 -3.931295336 4.794380713)
(0 -2.343586266 2.830427763)
(0 -1.361723595 1.614338691)
(0 -0.769370457 0.8883924682)
(0 -0.4217801436 0.4713502649)
(0 -0.2239494099 0.2410156814)
(0 -0.1150020925 0.1187621347)
(0 -0.05705674034 0.0564044014)
(0 -0.02733198023 0.02582846305)
(0 -0.01263748132 0.01140880257)
(0 -0.005639741969 0.004863892117)
(0 -0.00242968074 0.00200265115)
(0 -0.001010853307 0.000796894526)
(0 -0.0004063334691 0.0003066712902)
(0 -0.000157905482 0.0001142206048)
(0 -5.936152772e-05 4.120410595e-05)
(0 -2.160206948e-05 1.440741869e-05)
(0 -7.617743754e-06 4.886627187e-06)
(0 -2.602555788e-06 1.607480304e-06)
(0 -8.608207613e-07 5.123608183e-07)
(0 -2.705799693e-07 1.55571718e-07)
(0 -8.395037655e-08 4.432805757e-08)
(0 -3.308134233e-08 1.317606807e-08)
(0 -1.614068338e-08 4.941025526e-09)
(0 -1.199963342e-08 7.999755613e-09)
(0 -6.258632332e-09 4.517509052e-09)
(0 3.435189175e-09 3.294017017e-10)
(0 3.905763035e-09 -2.352869298e-09)
(0 8.940903332e-09 -5.741001087e-09)
(0 1.17172891e-08 -4.564566438e-09)
(0 3.199902245e-09 -2.352869298e-10)
(0 -2.352869298e-10 9.411477192e-11)
(0 -1.411721579e-10 0)
(0 4.705738596e-11 -1.882295438e-10)
(0 -8.893845946e-09 -3.294017017e-10)
(0 -1496.898081 7306.838698)
(0 -4545.030072 8058.628047)
(0 -7740.446452 9138.508449)
(0 -10875.02489 9903.74258)
(0 -12564.03388 9280.889344)
(0 -12082.5783 6610.298973)
(0 -11182.58705 3489.407926)
(0 -5617.068538 200.0487888)
(0 -184.0506932 118.2722569)
(0 -81.84093282 87.23093565)
(0 -56.48997881 63.51821163)
(0 -38.48887236 45.34751573)
(0 -25.86860375 31.54632773)
(0 -17.11166137 21.27582327)
(0 -11.10248158 13.85912287)
(0 -7.038432262 8.69739091)
(0 -4.343258532 5.250054911)
(0 -2.600161452 3.045795352)
(0 -1.506176825 1.697749708)
(0 -0.8425316906 0.9093287479)
(0 -0.4545132119 0.4681594581)
(0 -0.236266701 0.2318036532)
(0 -0.1183005254 0.1104534844)
(0 -0.05705292573 0.05068549056)
(0 -0.02650741379 0.02241641039)
(0 -0.01186943161 0.009562509566)
(0 -0.005125091291 0.003937777539)
(0 -0.002135309262 0.001566598683)
(0 -0.0008590389805 0.0006026134023)
(0 -0.0003339517745 0.0002243045359)
(0 -0.0001255503292 8.085560051e-05)
(0 -4.568006333e-05 2.824285485e-05)
(0 -1.610011992e-05 9.570719386e-06)
(0 -5.502749542e-06 3.146962686e-06)
(0 -1.820838492e-06 1.004016387e-06)
(0 -5.808293149e-07 3.10296403e-07)
(0 -1.79100411e-07 8.926786116e-08)
(0 -5.802175689e-08 2.71521117e-08)
(0 -2.164639754e-08 9.08207549e-09)
(0 -1.025851014e-08 8.799731174e-09)
(0 -9.882051051e-09 8.423272087e-09)
(0 -4.799853368e-09 1.270549421e-09)
(0 3.246959631e-09 -1.505836351e-09)
(0 8.987960718e-09 -1.411721579e-10)
(0 1.162317433e-08 -3.529303947e-09)
(0 5.458656771e-09 -2.870500543e-09)
(0 1.882295438e-10 -2.352869298e-10)
(0 -1.882295438e-10 0)
(0 -2.494041456e-09 1.882295438e-10)
(0 -6.446861876e-09 -2.305811912e-09)
(0 -1126.951431 5715.191512)
(0 -3615.774342 6450.030306)
(0 -6660.854042 7565.439039)
(0 -10316.85139 8639.082097)
(0 -13721.65848 8988.996999)
(0 -14884.63861 7169.06948)
(0 -14487.39509 3777.759897)
(0 -7357.631656 258.2746535)
(0 -242.8558305 170.2867578)
(0 -111.4237861 133.8236844)
(0 -79.98467401 103.0136567)
(0 -57.09920485 76.9986157)
(0 -40.33976336 55.54547312)
(0 -28.02548242 38.5194316)
(0 -19.02135572 25.6205676)
(0 -12.5403633 16.3267715)
(0 -7.995181824 9.965098801)
(0 -4.914028799 5.826654554)
(0 -2.905837061 3.265404316)
(0 -1.651370393 1.755260131)
(0 -0.9014745047 0.9057082237)
(0 -0.4727080662 0.4490138279)
(0 -0.238174903 0.2140676531)
(0 -0.1153690542 0.09823403991)
(0 -0.05376046227 0.043430133)
(0 -0.02411837487 0.01851536354)
(0 -0.01042559167 0.007618549894)
(0 -0.004346017397 0.00302823756)
(0 -0.001748627522 0.001163733672)
(0 -0.0006796633309 0.0004327312509)
(0 -0.0002554233029 0.0001558247926)
(0 -9.288685649e-05 5.437989167e-05)
(0 -3.271368297e-05 1.840404953e-05)
(0 -1.116930584e-05 6.04805053e-06)
(0 -3.69739293e-06 1.928929308e-06)
(0 -1.185328495e-06 5.960759079e-07)
(0 -3.670946679e-07 1.759005087e-07)
(0 -1.133141854e-07 5.148078024e-08)
(0 -3.454012129e-08 1.623479816e-08)
(0 -1.261137944e-08 5.458656771e-09)
(0 -1.364664193e-08 1.552893737e-09)
(0 -6.540976648e-09 1.882295438e-09)
(0 2.494041456e-09 4.705738596e-11)
(0 6.964493122e-09 4.705738596e-11)
(0 8.893845946e-09 -4.564566438e-09)
(0 6.493919262e-09 -5.270427227e-09)
(0 2.682271e-09 0)
(0 2.352869298e-10 1.694065895e-09)
(0 -2.305811912e-09 1.882295438e-10)
(0 -6.729206192e-09 3.294017017e-10)
(0 -762.0592862 4883.842204)
(0 -2694.782544 5608.997224)
(0 -5551.394662 6746.74338)
(0 -9451.466931 7892.365501)
(0 -14034.04649 8563.45572)
(0 -17293.8154 7629.526233)
(0 -18093.38188 4128.179023)
(0 -9224.541677 364.3038995)
(0 -308.5016623 269.0838335)
(0 -149.1140339 222.9211611)
(0 -113.3150475 178.6431567)
(0 -85.95705597 137.531722)
(0 -64.34778785 101.3186572)
(0 -47.03656689 71.2908673)
(0 -33.29514168 47.884805)
(0 -22.69390106 30.71027472)
(0 -14.84337548 18.8185658)
(0 -9.299855938 11.0281463)
(0 -5.577571248 6.186959642)
(0 -3.202227783 3.326412138)
(0 -1.760759515 1.715802921)
(0 -0.9279072716 0.849991255)
(0 -0.4690803134 0.4048278912)
(0 -0.2276904458 0.1855566044)
(0 -0.1062260902 0.08193331596)
(0 -0.04768101477 0.03488490365)
(0 -0.02061221718 0.01433537552)
(0 -0.008590125531 0.00569067133)
(0 -0.003454545242 0.002184122829)
(0 -0.001341860748 0.000811167737)
(0 -0.0005039016885 0.0002917544283)
(0 -0.0001831007123 0.0001017038577)
(0 -6.4431914e-05 3.438544367e-05)
(0 -2.197796388e-05 1.128614933e-05)
(0 -7.272766057e-06 3.596831296e-06)
(0 -2.333905171e-06 1.111730743e-06)
(0 -7.236484813e-07 3.333074647e-07)
(0 -2.177345248e-07 1.000910599e-07)
(0 -6.766852101e-08 3.110493212e-08)
(0 -2.484629979e-08 5.835115859e-09)
(0 -1.355252716e-08 -1.411721579e-10)
(0 -6.352747104e-09 2.258754526e-09)
(0 1.364664193e-09 -1.317606807e-09)
(0 4.42339428e-09 -2.588156228e-09)
(0 6.352747104e-09 -4.517509052e-09)
(0 1.002322321e-08 -3.388131789e-09)
(0 7.10566528e-09 -1.647008509e-09)
(0 0 2.776385772e-09)
(0 -3.811648263e-09 1.411721579e-09)
(0 -6.964493122e-09 -1.882295438e-10)
(0 -401.7964112 4433.805239)
(0 -1752.873166 5116.301727)
(0 -4377.485765 6312.966442)
(0 -8500.139052 7614.61629)
(0 -13984.49775 8507.770572)
(0 -19319.91531 8117.244626)
(0 -21752.61742 4879.260523)
(0 -11216.72685 564.6578412)
(0 -384.2385689 453.9778295)
(0 -201.8644629 389.5820638)
(0 -165.3741131 319.8644321)
(0 -134.4237044 250.1843056)
(0 -106.580618 186.1229982)
(0 -81.45933461 131.7014644)
(0 -59.60194831 88.71298222)
(0 -41.6066025 56.95160124)
(0 -27.67731024 34.89177638)
(0 -17.54563496 20.42794116)
(0 -10.60757122 11.44414001)
(0 -6.122527115 6.142552313)
(0 -3.377895387 3.162617814)
(0 -1.783683096 1.563785484)
(0 -0.9026095537 0.743392028)
(0 -0.4382636295 0.3401149275)
(0 -0.2044321629 0.1499126963)
(0 -0.09171631531 0.06372012784)
(0 -0.03961982395 0.0261423681)
(0 -0.01649727014 0.01036174251)
(0 -0.006628131162 0.003971151531)
(0 -0.002572031685 0.001472846441)
(0 -0.0009648871351 0.0005290623787)
(0 -0.0003502559352 0.0001842030315)
(0 -0.0001231314384 6.220845252e-05)
(0 -4.195787116e-05 2.039410639e-05)
(0 -1.387171741e-05 6.493636918e-06)
(0 -4.448899383e-06 2.007044569e-06)
(0 -1.378828466e-06 6.041227209e-07)
(0 -4.154226032e-07 1.78865124e-07)
(0 -1.288431228e-07 5.138666547e-08)
(0 -4.39045411e-08 1.515247828e-08)
(0 -1.722300326e-08 3.058730087e-09)
(0 -7.576239139e-09 1.97641021e-09)
(0 -2.399926684e-09 -3.764590877e-10)
(0 3.717533491e-09 -3.199902245e-09)
(0 8.046812999e-09 -1.835238052e-09)
(0 9.31736242e-09 -8.470329473e-10)
(0 8.940903332e-09 -2.541098842e-09)
(0 3.341074403e-09 9.411477192e-10)
(0 -5.317484613e-09 2.258754526e-09)
(0 -7.952698227e-09 -3.764590877e-10)
(0 -79.56279774 4303.981397)
(0 -815.6213411 4841.540889)
(0 -3053.080099 6050.483068)
(0 -7256.662802 7593.141329)
(0 -13531.41816 8895.622664)
(0 -20922.32545 9038.02456)
(0 -25645.96866 6308.85458)
(0 -13649.82437 931.0153582)
(0 -483.5774397 791.5636421)
(0 -283.2274313 693.7211428)
(0 -252.7128057 576.7474089)
(0 -219.6984899 454.0366583)
(0 -182.8306291 338.63049)
(0 -144.4465829 239.6303944)
(0 -108.0450048 161.1848767)
(0 -76.5151069 103.2444491)
(0 -51.36703556 63.08420164)
(0 -32.74749231 36.82824579)
(0 -19.86296009 20.57250869)
(0 -11.48374998 11.01105533)
(0 -6.339526343 5.653970831)
(0 -3.347133057 2.788516661)
(0 -1.69275087 1.322423528)
(0 -0.8211697775 0.6036749572)
(0 -0.3826208899 0.2655261077)
(0 -0.171451343 0.1126419783)
(0 -0.07397060251 0.04612995514)
(0 -0.03076134205 0.0182532843)
(0 -0.01234344132 0.006984668553)
(0 -0.004783949901 0.002586756318)
(0 -0.001792545145 0.0009279316994)
(0 -0.0006499545914 0.0003226711779)
(0 -0.0002282408862 0.0001088446749)
(0 -7.769277948e-05 3.564178176e-05)
(0 -2.565992199e-05 1.133683014e-05)
(0 -8.223325254e-06 3.503563557e-06)
(0 -2.551780868e-06 1.051497289e-06)
(0 -7.704235229e-07 3.054024349e-07)
(0 -2.313811668e-07 8.470329473e-08)
(0 -7.322129255e-08 2.517570149e-08)
(0 -2.677565261e-08 5.882173245e-09)
(0 -9.740878893e-09 1.97641021e-09)
(0 -3.811648263e-09 -7.529181753e-10)
(0 3.011672701e-09 -7.529181753e-10)
(0 8.752673788e-09 -3.623418719e-09)
(0 9.270305034e-09 -2.776385772e-09)
(0 8.799731174e-09 -2.070524982e-09)
(0 4.846910754e-09 -1.411721579e-10)
(0 -5.176312455e-09 1.270549421e-09)
(0 -8.799731174e-09 2.494041456e-09)
(0 135.7630807 4519.535511)
(0 -6.371495478 4806.709882)
(0 -1625.885325 5869.665833)
(0 -5654.999456 7608.704711)
(0 -12539.61452 9387.787625)
(0 -21906.68339 10187.30833)
(0 -29859.62662 8149.632901)
(0 -16734.01778 1565.766229)
(0 -621.5327843 1391.599347)
(0 -416.680696 1234.647338)
(0 -405.0585976 1031.386292)
(0 -372.5406233 812.18419)
(0 -320.9868819 604.3949039)
(0 -258.9049479 426.1823222)
(0 -195.9878936 285.481202)
(0 -139.7072776 182.0720508)
(0 -94.09351353 110.7765104)
(0 -60.05732791 64.40825463)
(0 -36.42476169 35.84193086)
(0 -21.04106497 19.11601757)
(0 -11.60043405 9.783805906)
(0 -6.115230399 4.810942212)
(0 -3.087451258 2.275304693)
(0 -1.49516105 1.036060558)
(0 -0.6954651418 0.4546678263)
(0 -0.3111124677 0.1924755876)
(0 -0.1340085181 0.07867233765)
(0 -0.05564255672 0.0310750247)
(0 -0.02229465915 0.01187158072)
(0 -0.008628768491 0.004390011159)
(0 -0.003228972275 0.001572614781)
(0 -0.001169342913 0.0005461470803)
(0 -0.0004101608346 0.0001840106139)
(0 -0.0001394656218 6.01889848e-05)
(0 -4.601002972e-05 1.912558043e-05)
(0 -1.473423223e-05 5.908054807e-06)
(0 -4.577036645e-06 1.772416442e-06)
(0 -1.382263655e-06 5.145254581e-07)
(0 -4.091639709e-07 1.449367488e-07)
(0 -1.226315478e-07 3.82105974e-08)
(0 -4.042229454e-08 9.740878893e-09)
(0 -1.430544533e-08 1.270549421e-09)
(0 -4.988082912e-09 1.035262491e-09)
(0 7.529181753e-10 0)
(0 6.023345403e-09 -5.176312455e-10)
(0 1.096437093e-08 -3.152844859e-09)
(0 1.157611695e-08 -2.023467596e-09)
(0 6.682148806e-09 3.294017017e-10)
(0 -2.682271e-09 7.529181753e-10)
(0 -1.17172891e-08 -1.882295438e-10)
(0 207.6115734 4960.03225)
(0 534.5089811 5080.810331)
(0 -251.0852693 5790.529108)
(0 -3738.541009 7585.194856)
(0 -10952.81454 9842.21069)
(0 -22160.48018 11401.64695)
(0 -34267.51076 10151.79118)
(0 -20407.85793 2647.458655)
(0 -814.6963305 2436.716563)
(0 -643.4404859 2173.305008)
(0 -675.1759537 1813.535223)
(0 -646.6898781 1422.044673)
(0 -568.832497 1052.262087)
(0 -463.3602848 737.4715338)
(0 -352.1552762 491.0141669)
(0 -251.2197985 311.3553691)
(0 -169.0308317 188.4244197)
(0 -107.6820718 109.0194943)
(0 -65.15519715 60.39802778)
(0 -37.54187493 32.08357635)
(0 -20.64460171 16.36130054)
(0 -10.85563427 8.018983819)
(0 -5.467632524 3.781346773)
(0 -2.641806644 1.717248873)
(0 -1.226205861 0.7517838695)
(0 -0.5474468317 0.3175573322)
(0 -0.2353711654 0.1295394913)
(0 -0.09756209893 0.05107417492)
(0 -0.03902845491 0.01947940605)
(0 -0.01508291589 0.007192333926)
(0 -0.005636409223 0.00257286606)
(0 -0.002038558806 0.0008923628095)
(0 -0.0007141988876 0.0003003034848)
(0 -0.00024257786 9.812104953e-05)
(0 -7.994080492e-05 3.1147472e-05)
(0 -2.557658336e-05 9.613212205e-06)
(0 -7.94526316e-06 2.88640594e-06)
(0 -2.397856159e-06 8.388449621e-07)
(0 -7.0764897e-07 2.380162582e-07)
(0 -2.084171624e-07 5.853938813e-08)
(0 -6.371570059e-08 1.237609251e-08)
(0 -1.849355268e-08 1.129377263e-09)
(0 -5.035140298e-09 2.352869298e-09)
(0 1.411721579e-09 -3.764590877e-10)
(0 5.552771543e-09 2.635213614e-09)
(0 7.858583455e-09 -1.882295438e-10)
(0 1.228197774e-08 1.411721579e-09)
(0 7.576239139e-09 1.882295438e-10)
(0 -5.646886315e-09 0)
(0 -9.411477192e-09 -2.305811912e-09)
(0 256.5411613 5450.852632)
(0 824.1253624 5514.21698)
(0 878.4992 5911.464659)
(0 -1603.317874 7543.795441)
(0 -8723.162428 10260.30735)
(0 -21597.1029 12738.3263)
(0 -38613.81492 12458.52243)
(0 -24449.0924 4489.085387)
(0 -1095.686431 4224.777675)
(0 -1039.862035 3761.453456)
(0 -1156.318932 3119.090702)
(0 -1133.81376 2426.216083)
(0 -1005.560021 1780.310714)
(0 -820.1528682 1237.648583)
(0 -622.1040583 817.855561)
(0 -442.2970247 515.0686588)
(0 -296.4293883 309.7936203)
(0 -188.0837199 178.2588478)
(0 -113.3606797 98.27486884)
(0 -65.07779221 51.97679838)
(0 -35.66502658 26.40335781)
(0 -18.69518416 12.89608261)
(0 -9.389186204 6.062363678)
(0 -4.524723953 2.745525481)
(0 -2.095156683 1.19895832)
(0 -0.9333568458 0.505311031)
(0 -0.4004916753 0.2057111117)
(0 -0.165702642 0.08095762045)
(0 -0.06617650019 0.03082512109)
(0 -0.02553530848 0.01136409763)
(0 -0.009528943391 0.004059515279)
(0 -0.003441905487 0.001406175725)
(0 -0.001204402548 0.0004726515843)
(0 -0.0004086217757 0.0001542652638)
(0 -0.0001345177259 4.892429363e-05)
(0 -4.299525123e-05 1.508692734e-05)
(0 -1.335145095e-05 4.529508685e-06)
(0 -4.030700394e-06 1.31953616e-06)
(0 -1.18937543e-06 3.722239229e-07)
(0 -3.483187709e-07 9.882051051e-08)
(0 -9.783230541e-08 2.44698407e-08)
(0 -2.432866854e-08 5.646886315e-09)
(0 -6.540976648e-09 1.176434649e-09)
(0 1.176434649e-09 -4.705738596e-10)
(0 6.211574947e-09 2.352869298e-10)
(0 9.599706736e-09 0)
(0 1.190551865e-08 3.952820421e-09)
(0 5.270427227e-09 9.411477192e-11)
(0 -5.082197684e-09 -3.764590877e-10)
(0 -9.458534578e-09 2.823443158e-10)
(0 270.9759222 5969.775313)
(0 995.1210083 6013.92305)
(0 1778.493192 6298.507729)
(0 610.3016793 7536.982534)
(0 -5758.283683 10680.12485)
(0 -19962.26509 14340.06773)
(0 -42516.75167 15539.00448)
(0 -28641.60268 7603.817554)
(0 -1542.328262 7222.077317)
(0 -1749.127459 6373.761994)
(0 -2010.413327 5226.977193)
(0 -1985.469867 4020.028334)
(0 -1757.399996 2918.409474)
(0 -1425.815437 2009.168079)
(0 -1074.735201 1316.184089)
(0 -759.2817392 822.5529572)
(0 -505.8406427 491.3956453)
(0 -319.2008233 281.0787139)
(0 -191.4372466 154.1528375)
(0 -109.4133859 81.15662385)
(0 -59.72531748 41.05966378)
(0 -31.19662841 19.9829602)
(0 -15.61818965 9.364093239)
(0 -7.505212003 4.228854524)
(0 -3.46642031 1.842069534)
(0 -1.54069404 0.7746025095)
(0 -0.6597245759 0.3146984095)
(0 -0.2724480895 0.1236223199)
(0 -0.1086219777 0.04699168834)
(0 -0.04184852165 0.01729791198)
(0 -0.01559433113 0.006170678596)
(0 -0.0056254225 0.002134761279)
(0 -0.001966109396 0.0007167074698)
(0 -0.0006663050566 0.000233669991)
(0 -0.0002191192355 7.403387949e-05)
(0 -6.997136831e-05 2.281304425e-05)
(0 -2.171260728e-05 6.840732197e-06)
(0 -6.555140921e-06 1.995468452e-06)
(0 -1.928411677e-06 5.607358111e-07)
(0 -5.56218302e-07 1.530306191e-07)
(0 -1.568893248e-07 4.108109794e-08)
(0 -4.173990135e-08 9.929108437e-09)
(0 -1.110554309e-08 2.164639754e-09)
(0 4.235164736e-10 9.411477192e-11)
(0 5.976288017e-09 -1.882295438e-10)
(0 1.162317433e-08 1.223492035e-09)
(0 1.247020728e-08 2.070524982e-09)
(0 3.152844859e-09 0)
(0 -5.458656771e-09 4.705738596e-11)
(0 -9.31736242e-09 -1.882295438e-10)
(0 300.6888985 6526.145319)
(0 1152.857779 6598.621305)
(0 2401.558683 6832.658232)
(0 2778.299244 7783.69824)
(0 -1920.077234 11081.87405)
(0 -16738.22327 16254.87156)
(0 -45350.06509 19831.46891)
(0 -32766.01956 12773.32999)
(0 -2325.741991 12121.92277)
(0 -3034.96216 10533.15884)
(0 -3510.052593 8505.374659)
(0 -3442.381478 6448.879797)
(0 -3016.420276 4622.68801)
(0 -2422.378254 3147.334902)
(0 -1808.71918 2041.99326)
(0 -1267.085468 1265.533889)
(0 -837.9036316 750.5871077)
(0 -525.3265277 426.6546855)
(0 -313.2827697 232.7214806)
(0 -178.1709659 121.9409973)
(0 -96.83869023 61.43854493)
(0 -50.39075471 29.79239905)
(0 -25.14329188 13.9161566)
(0 -12.04674766 6.266782982)
(0 -5.549408698 2.722912156)
(0 -2.460727971 1.14243159)
(0 -1.051471865 0.4632028455)
(0 -0.4334093632 0.1816296803)
(0 -0.1725009081 0.06892876914)
(0 -0.06635631832 0.02533547383)
(0 -0.0246920941 0.009025727753)
(0 -0.008895876566 0.003118623787)
(0 -0.003105493882 0.00104583925)
(0 -0.001051295319 0.0003406255)
(0 -0.0003453746726 0.0001078151534)
(0 -0.0001101884456 3.318886846e-05)
(0 -3.416897969e-05 9.940119866e-06)
(0 -1.031069678e-05 2.898264401e-06)
(0 -3.03186032e-06 8.199278929e-07)
(0 -8.679264266e-07 2.22628493e-07)
(0 -2.408867587e-07 5.877467506e-08)
(0 -6.324512673e-08 1.491719135e-08)
(0 -1.64230277e-08 3.717533491e-09)
(0 -1.223492035e-09 8.940903332e-10)
(0 7.388009595e-09 -1.647008509e-09)
(0 1.181140388e-08 1.364664193e-09)
(0 1.068202661e-08 -9.411477192e-10)
(0 3.294017017e-09 -4.705738596e-10)
(0 -5.270427227e-09 2.352869298e-10)
(0 -9.31736242e-09 -2.823443158e-10)
(0 343.4519083 7111.185268)
(0 1301.633921 7208.02468)
(0 2963.570127 7473.493634)
(0 4859.517494 8293.663663)
(0 2712.889632 11237.6769)
(0 -11212.67023 18280.90269)
(0 -45998.29324 25472.21857)
(0 -36351.14882 21083.94795)
(0 -3782.499414 19887.23313)
(0 -5365.675574 16908.77463)
(0 -6094.692368 13391.82181)
(0 -5868.156516 9985.179358)
(0 -5058.944891 7055.767157)
(0 -4006.510187 4745.638279)
(0 -2956.536214 3047.181134)
(0 -2050.687892 1871.877637)
(0 -1344.719846 1101.855546)
(0 -837.0664503 622.284389)
(0 -496.1509347 337.5437584)
(0 -280.6963216 176.0164476)
(0 -151.8739158 88.31412428)
(0 -78.71901673 42.66900928)
(0 -39.14380572 19.8673587)
(0 -18.69845645 8.921649274)
(0 -8.590771703 3.866827781)
(0 -3.800403351 1.618797271)
(0 -1.620526485 0.6550548062)
(0 -0.6667221659 0.2564047459)
(0 -0.2649161843 0.09715141459)
(0 -0.101751563 0.03565771275)
(0 -0.03781118108 0.01268645587)
(0 -0.01360531105 0.004378293634)
(0 -0.004744107683 0.001466685076)
(0 -0.001604329106 0.0004772187389)
(0 -0.0005265559611 0.0001509131779)
(0 -0.0001678463548 4.640738229e-05)
(0 -5.200325839e-05 1.388734046e-05)
(0 -1.567533289e-05 4.049005717e-06)
(0 -4.604000527e-06 1.150270742e-06)
(0 -1.317418577e-06 3.196137654e-07)
(0 -3.64553569e-07 8.635030323e-08)
(0 -9.68441003e-08 2.282283219e-08)
(0 -2.517570149e-08 4.611623824e-09)
(0 -4.846910754e-09 3.105787473e-09)
(0 6.446861876e-09 -2.729328386e-09)
(0 1.232903512e-08 -3.294017017e-10)
(0 1.063496923e-08 -4.093992578e-09)
(0 4.329279508e-09 -2.164639754e-09)
(0 -5.223369841e-09 -2.44698407e-09)
(0 -9.31736242e-09 0)
(0 397.5283106 7721.778809)
(0 1515.166144 7844.557459)
(0 3487.197667 8226.691191)
(0 6542.482511 9030.379193)
(0 8067.161788 11594.43744)
(0 -2503.681604 19879.77907)
(0 -42547.01982 32173.12427)
(0 -38351.005 33833.74124)
(0 -6500.915313 31726.23326)
(0 -9530.373482 26251.21071)
(0 -10433.64787 20325.77012)
(0 -9778.436128 14873.08313)
(0 -8255.961355 10346.75718)
(0 -6430.964276 6869.072608)
(0 -4682.479822 4362.827377)
(0 -3212.411056 2655.634334)
(0 -2087.49688 1551.15387)
(0 -1289.638316 870.2947524)
(0 -759.550711 469.4325203)
(0 -427.4006 243.6171763)
(0 -230.1861286 121.726047)
(0 -118.8375203 58.60085235)
(0 -58.89065189 27.20005999)
(0 -28.04727858 12.18096426)
(0 -12.8522607 5.266722113)
(0 -5.672500945 2.200127131)
(0 -2.41386439 0.8885984202)
(0 -0.9913127547 0.347227875)
(0 -0.3932479412 0.1313632749)
(0 -0.150821277 0.04814818798)
(0 -0.05597151331 0.01710902006)
(0 -0.02011564736 0.005897898788)
(0 -0.007006568778 0.001973695517)
(0 -0.002367067264 0.0006415812942)
(0 -0.0007761859822 0.0002027131484)
(0 -0.000247214236 6.228741481e-05)
(0 -7.652735626e-05 1.862324284e-05)
(0 -2.304781355e-05 5.424869568e-06)
(0 -6.761252272e-06 1.54112939e-06)
(0 -1.931846866e-06 4.291163026e-07)
(0 -5.37677692e-07 1.191493012e-07)
(0 -1.449367488e-07 3.138727643e-08)
(0 -3.614007242e-08 6.63509142e-09)
(0 -8.61150163e-09 3.011672701e-09)
(0 3.952820421e-09 -1.599951123e-09)
(0 1.044673968e-08 -7.529181753e-10)
(0 8.799731174e-09 -4.141049964e-09)
(0 4.988082912e-09 -2.729328386e-09)
(0 -3.152844859e-09 -2.870500543e-09)
(0 -6.823320964e-09 0)
(0 466.2305575 8321.383896)
(0 1806.546303 8488.023617)
(0 4149.391862 9003.563311)
(0 8227.263742 10070.58415)
(0 13562.28951 12418.95661)
(0 9366.016605 20187.14899)
(0 -32044.33107 39114.88687)
(0 -36798.03982 52190.10138)
(0 -11365.02994 48915.8901)
(0 -16766.13872 39219.23929)
(0 -17472.81995 29612.0309)
(0 -15847.16946 21232.48938)
(0 -13062.95542 14528.59661)
(0 -9990.439986 9515.449243)
(0 -7169.974488 5976.370931)
(0 -4862.361398 3604.103227)
(0 -3130.059428 2088.834448)
(0 -1918.7878 1164.314798)
(0 -1122.828511 624.5499792)
(0 -628.402795 322.5876762)
(0 -336.8902398 160.5320903)
(0 -173.2450038 77.01275501)
(0 -85.56369381 35.63772778)
(0 -40.63179432 15.91736468)
(0 -18.57160883 6.866260391)
(0 -8.178527044 2.862444138)
(0 -3.473425741 1.153998127)
(0 -1.423957311 0.4502052057)
(0 -0.5639958713 0.1700747902)
(0 -0.2160058179 0.06225572717)
(0 -0.08006147027 0.02209594527)
(0 -0.0287406355 0.007608873531)
(0 -0.01000042522 0.002543778101)
(0 -0.003375311522 0.0008261598437)
(0 -0.001105849888 0.0002608173969)
(0 -0.0003519361662 8.00862593e-05)
(0 -0.0001088658036 2.39279749e-05)
(0 -3.27574934e-05 6.961481449e-06)
(0 -9.599753793e-06 1.975139661e-06)
(0 -2.739398666e-06 5.488302924e-07)
(0 -7.623296525e-07 1.501130612e-07)
(0 -2.093583101e-07 3.802236785e-08)
(0 -5.341013306e-08 8.987960718e-09)
(0 -1.317606807e-08 1.599951123e-09)
(0 2.635213614e-09 4.705738596e-11)
(0 9.834993665e-09 -1.082319877e-09)
(0 8.658559016e-09 -1.035262491e-09)
(0 5.505714157e-09 -4.235164736e-10)
(0 -2.44698407e-09 -4.235164736e-10)
(0 -6.39980449e-09 5.176312455e-10)
(0 564.1680324 8849.080783)
(0 2197.34556 9083.732679)
(0 5069.7582 9758.361711)
(0 9957.875805 11255.8095)
(0 18183.72663 13956.83715)
(0 24192.24866 21140.87424)
(0 -10544.06743 44823.9962)
(0 -28550.00177 76568.18039)
(0 -19471.77741 72372.7482)
(0 -28834.23269 56060.36918)
(0 -28420.39777 41207.20011)
(0 -24861.87042 28925.65611)
(0 -19973.0015 19458.77569)
(0 -14983.18996 12570.11143)
(0 -10593.82584 7806.614752)
(0 -7099.947539 4664.462927)
(0 -4527.285309 2682.708266)
(0 -2753.922784 1485.775955)
(0 -1601.277832 792.6934613)
(0 -891.4184888 407.5670172)
(0 -475.7610498 202.0311454)
(0 -243.7318828 96.5970804)
(0 -119.9860422 44.57117734)
(0 -56.81874597 19.85739953)
(0 -25.90718124 8.547042505)
(0 -11.38476321 3.556250251)
(0 -4.826103322 1.431256546)
(0 -1.975236091 0.5575228423)
(0 -0.7811974198 0.210330579)
(0 -0.2988001218 0.0768975737)
(0 -0.1106183669 0.02726269613)
(0 -0.03966781458 0.009378743651)
(0 -0.01378928242 0.003132645288)
(0 -0.004650027968 0.001016566074)
(0 -0.001522259567 0.0003206879914)
(0 -0.000484103658 9.84031115e-05)
(0 -0.0001496521812 2.938634933e-05)
(0 -4.500060173e-05 8.545386003e-06)
(0 -1.317395049e-05 2.422278942e-06)
(0 -3.756826408e-06 6.696736596e-07)
(0 -1.048438559e-06 1.781122059e-07)
(0 -2.86155964e-07 4.465745927e-08)
(0 -7.256248915e-08 1.124671524e-08)
(0 -1.750534758e-08 2.023467596e-09)
(0 1.317606807e-09 3.294017017e-10)
(0 9.31736242e-09 -6.117460175e-10)
(0 9.55264935e-09 2.352869298e-10)
(0 5.599828929e-09 2.352869298e-10)
(0 -2.258754526e-09 1.882295438e-10)
(0 -6.964493122e-09 9.411477192e-11)
(0 700.8824541 9227.359668)
(0 2715.827231 9542.356273)
(0 6321.46868 10418.81013)
(0 12425.73918 12398.97277)
(0 23447.35425 16240.9837)
(0 40233.17565 23817.11346)
(0 23382.97508 47666.09022)
(0 -9249.287822 105900.0795)
(0 -31872.84115 101909.0134)
(0 -47931.6868 76152.31395)
(0 -44607.53301 54455.44674)
(0 -37595.59388 37412.0775)
(0 -29418.5001 24742.6498)
(0 -21642.60092 15766.77471)
(0 -15075.62299 9684.361023)
(0 -9986.267884 5734.490246)
(0 -6308.7464 3273.733218)
(0 -3808.802605 1801.97116)
(0 -2201.037449 956.4493537)
(0 -1219.065111 489.6320032)
(0 -647.8601765 241.8177305)
(0 -330.7049719 115.2564551)
(0 -162.3033747 53.03683157)
(0 -76.65592916 23.5735858)
(0 -34.8727581 10.12581449)
(0 -15.294313 4.205588952)
(0 -6.47215315 1.689913912)
(0 -2.644883278 0.6573555438)
(0 -1.04462114 0.2476834493)
(0 -0.3990737008 0.09045255307)
(0 -0.1475803003 0.0320360792)
(0 -0.05287068644 0.01101082297)
(0 -0.0183626028 0.00367474628)
(0 -0.006187268818 0.001191582186)
(0 -0.002024012709 0.0003756398656)
(0 -0.0006432379025 0.0001151906457)
(0 -0.0001987235762 3.43812085e-05)
(0 -5.972146967e-05 9.99207122e-06)
(0 -1.747541908e-05 2.831960544e-06)
(0 -4.98361246e-06 7.801644018e-07)
(0 -1.387345853e-06 2.111464908e-07)
(0 -3.761767434e-07 5.642180576e-08)
(0 -9.61852969e-08 1.397604363e-08)
(0 -2.409338161e-08 3.105787473e-09)
(0 9.411477192e-11 1.882295438e-09)
(0 9.693821507e-09 2.352869298e-10)
(0 9.505591964e-09 2.917557929e-09)
(0 5.458656771e-09 -3.294017017e-10)
(0 -2.635213614e-09 -2.352869298e-10)
(0 -6.588034034e-09 -3.764590877e-10)
(0 879.1646376 9365.848321)
(0 3388.796024 9759.97854)
(0 7926.374701 10864.83566)
(0 15780.04938 13337.10718)
(0 29601.86732 18518.39054)
(0 55617.35518 28064.20032)
(0 71538.89862 51338.35662)
(0 25692.92145 136996.866)
(0 -49219.54298 135241.0292)
(0 -76287.79938 97506.76634)
(0 -67160.63422 67855.27661)
(0 -54574.66736 45646.29802)
(0 -41618.30428 29692.82359)