/*--------------------------------*- C++ -*----------------------------------*\
  =========                 |
  \\      /  F ield         | OpenFOAM: The Open Source CFD Toolbox
   \\    /   O peration     | Website:  https://openfoam.org
    \\  /    A nd           | Version:  6
     \\/     M anipulation  |
\*---------------------------------------------------------------------------*/
FoamFile
{
    version     2.0;
    format      ascii;
    class       volVectorField;
    location    "0.14";
    object      Marangoni;
}
// * * * * * * * * * * * * * * * * * * * * * * * * * * * * * * * * * * * * * //

dimensions      [1 -2 -2 0 0 0 0];

internalField   nonuniform List<vector> 
2500
(
(-0 6.352438737e-12 -1.174999054e-10)
(-0 2.363598793e-11 -1.6397823e-10)
(-0 3.474354252e-12 -1.836520186e-11)
(-0 1.741287769e-11 -8.506079238e-11)
(-0 1.643286662e-11 -7.034322074e-11)
(-0 1.604395547e-11 -5.298396602e-11)
(-0 2.592744808e-07 -4.799578643e-07)
(-0 6.895205582e-06 -13.05175772)
(-0 2.278685995e-07 -6.289244924)
(-0 1.948573844e-09 -8.203341448e-09)
(-0 2.270266581e-14 -9.304776217e-14)
(-0 1.355306753e-14 -5.37313904e-14)
(-0 1.255813291e-14 -4.812346174e-14)
(-0 6.500565844e-15 -2.411163061e-14)
(-0 4.869103797e-15 -1.75046397e-14)
(-0 2.85686263e-15 -9.959602483e-15)
(-0 2.151346807e-15 -7.269051432e-15)
(-0 1.348962318e-15 -4.411031191e-15)
(-0 6.859555563e-16 -2.166123733e-15)
(-0 1.04033298e-16 -3.164858847e-16)
(-0 8.534624284e-17 -2.495373985e-16)
(-0 6.794881475e-17 -1.905560105e-16)
(-0 4.725037568e-17 -1.269031989e-16)
(-0 3.805936441e-17 -9.779912857e-17)
(-0 1.818265108e-17 -4.468384333e-17)
(-0 2.445408649e-18 -5.747519918e-18)
(-0 6.912905237e-19 -1.554560353e-18)
(-0 3.812097212e-19 -8.20789843e-19)
(-0 6.244468523e-20 -1.288464402e-19)
(-0 9.040521018e-20 -1.789602144e-19)
(-0 1.517585397e-20 -2.884166923e-20)
(-0 1.637085457e-20 -2.987485363e-20)
(-0 5.932810003e-21 -1.043529597e-20)
(-0 2.81416465e-21 -4.786521789e-21)
(-0 8.149157845e-22 -1.360475651e-21)
(-0 5.573385654e-23 -1.041275727e-22)
(-0 2.433219425e-23 -7.671797715e-23)
(-0 2.238478675e-23 -3.532396984e-23)
(-0 1.891383753e-23 2.73985497e-24)
(-0 1.709238127e-24 6.589562779e-24)
(-0 0 0)
(-0 -0 0)
(-0 -0 0)
(-0 -0 0)
(-0 -0 -0)
(-0 0 -0)
(-0 -0 -0)
(-0 -0 -0)
(-0 0 -0)
(-0 0 -0)
(-0 1.281062321e-11 -1.070200959e-10)
(-0 3.388825607e-11 -1.049735226e-10)
(-0 5.9756379e-11 -1.281084391e-10)
(-0 1.894734788e-11 -3.234253323e-11)
(-0 6.316512327e-11 -8.877746851e-11)
(-0 4.751588831e-11 -5.158236156e-11)
(-0 4.927922542e-07 -3.073229837e-07)
(-0 1.875922789e-05 -12.79100993)
(-0 6.174393244e-07 -6.593929736)
(-0 2.277053913e-09 -3.528961655e-09)
(-0 1.580486078e-13 -2.412730615e-13)
(-0 1.044829166e-13 -1.575028818e-13)
(-0 7.278013065e-14 -1.086127331e-13)
(-0 2.491113504e-14 -3.68556197e-14)
(-0 1.590176265e-14 -2.331342082e-14)
(-0 1.638740132e-14 -2.375175685e-14)
(-0 7.158994868e-15 -1.021804045e-14)
(-0 2.466700366e-15 -3.450259134e-15)
(-0 2.8001822e-15 -3.818449613e-15)
(-0 6.071461019e-16 -8.031513309e-16)
(-0 1.624085425e-16 -2.075000311e-16)
(-0 2.587937982e-16 -3.182230736e-16)
(-0 3.393082013e-16 -4.004959467e-16)
(-0 1.13362751e-16 -1.282140137e-16)
(-0 1.105626792e-16 -1.197025165e-16)
(-0 2.267819922e-17 -2.349503418e-17)
(-0 2.290646598e-18 -2.27120143e-18)
(-0 1.91539574e-18 -1.818453078e-18)
(-0 8.978017746e-19 -8.168026607e-19)
(-0 4.172141184e-19 -3.640828687e-19)
(-0 1.388235737e-19 -1.163015896e-19)
(-0 8.023890488e-20 -6.466246299e-20)
(-0 4.096533041e-20 -3.177205784e-20)
(-0 1.234727909e-20 -9.209699027e-21)
(-0 7.419845708e-21 -5.379839467e-21)
(-0 7.172781374e-22 -5.23540952e-22)
(-0 1.524832613e-22 -1.148039998e-22)
(-0 7.793559586e-23 -2.677176957e-23)
(-0 8.303758385e-23 -1.391823138e-23)
(-0 1.858033331e-23 -5.385603857e-25)
(-0 0 0)
(-0 -0 0)
(-0 -0 0)
(-0 -0 0)
(-0 -0 0)
(-0 -0 -0)
(-0 -0 -0)
(-0 -0 -0)
(-0 0 -0)
(-0 0 -0)
(-0 1.694800075e-11 -9.671177175e-11)
(-0 3.659295663e-11 -7.668918799e-11)
(-0 6.493103912e-11 -9.209015795e-11)
(-0 8.338941412e-11 -9.288775802e-11)
(-0 2.805085727e-11 -2.545352472e-11)
(-0 5.109849155e-11 -3.528264332e-11)
(-0 3.640227835e-07 -1.463953804e-07)
(-0 3.040622318e-05 -13.99444979)
(-0 9.939179761e-07 -7.626164411)
(-0 2.411902901e-09 -2.704571516e-09)
(-0 3.700087585e-13 -4.223865284e-13)
(-0 1.31128673e-13 -1.529152051e-13)
(-0 7.032083455e-14 -8.3698997e-14)
(-0 9.15613452e-14 -1.107269968e-13)
(-0 7.323979558e-14 -8.933177483e-14)
(-0 6.666622435e-14 -8.128454817e-14)
(-0 3.438210737e-14 -4.151673403e-14)
(-0 1.715467565e-14 -2.033390462e-14)
(-0 7.349988966e-15 -8.485934316e-15)
(-0 3.543295359e-15 -3.959290707e-15)
(-0 2.696238834e-15 -2.901434543e-15)
(-0 1.88104961e-15 -1.942389364e-15)
(-0 9.941986132e-16 -9.82757152e-16)
(-0 4.450714793e-16 -4.205584265e-16)
(-0 1.498806615e-16 -1.352992865e-16)
(-0 7.337002122e-17 -6.327241307e-17)
(-0 4.439277036e-18 -3.658808324e-18)
(-0 2.778819242e-18 -2.190506081e-18)
(-0 1.157544898e-18 -8.73574091e-19)
(-0 2.990582894e-19 -2.163088166e-19)
(-0 2.213057866e-19 -1.536028412e-19)
(-0 1.800600074e-19 -1.20083024e-19)
(-0 1.103201504e-19 -7.07628901e-20)
(-0 1.686061339e-20 -1.04141422e-20)
(-0 1.360452874e-20 -8.09718742e-21)
(-0 4.647496087e-21 -2.670890858e-21)
(-0 3.485261018e-22 -1.841677037e-22)
(-0 1.323483601e-22 -5.23721368e-23)
(-0 7.493780866e-23 -2.300722196e-23)
(-0 6.145293521e-23 -4.096862347e-23)
(-0 6.280227909e-24 -4.485877078e-24)
(-0 -0 -0)
(-0 -0 0)
(-0 -0 0)
(-0 -0 0)
(-0 -0 0)
(-0 0 -0)
(-0 0 -0)
(-0 -0 0)
(-0 0 0)
(-0 4.666411708e-12 -2.277171876e-11)
(-0 4.333376079e-11 -7.681596022e-11)
(-0 4.17772757e-11 -4.931570078e-11)
(-0 8.476021315e-11 -7.718469261e-11)
(-0 9.4193488e-11 -6.957787697e-11)
(-0 6.889129563e-12 -3.76895135e-12)
(-0 5.220146673e-07 -1.62911286e-07)
(-0 4.286240874e-05 -16.66320615)
(-0 1.400128854e-06 -9.850393597)
(-0 3.898546145e-09 -4.154575904e-09)
(-0 3.501458603e-13 -3.935800286e-13)
(-0 3.805354377e-14 -4.482063685e-14)
(-0 3.827634378e-13 -4.666417643e-13)
(-0 3.000830399e-13 -3.730171082e-13)
(-0 1.208815865e-13 -1.508639512e-13)
(-0 7.173204734e-14 -8.862403036e-14)
(-0 5.460351019e-14 -6.599446187e-14)
(-0 2.267817569e-14 -2.656185258e-14)
(-0 7.436279634e-15 -8.381308948e-15)
(-0 6.247511778e-15 -6.742276358e-15)
(-0 3.405426849e-15 -3.507422891e-15)
(-0 2.413735821e-15 -2.367989745e-15)
(-0 1.785995264e-15 -1.667428876e-15)
(-0 9.057011715e-16 -8.045741874e-16)
(-0 4.31626964e-16 -3.64991992e-16)
(-0 6.385468576e-17 -5.144119613e-17)
(-0 5.601624097e-17 -4.303679331e-17)
(-0 2.164171141e-17 -1.587686916e-17)
(-0 3.502586198e-18 -2.456919267e-18)
(-0 1.142316828e-18 -7.672147181e-19)
(-0 1.952589105e-19 -1.257416181e-19)
(-0 6.282211431e-19 -3.883921963e-19)
(-0 2.150633617e-19 -1.278368586e-19)
(-0 8.559021543e-21 -4.894446951e-21)
(-0 1.088719428e-20 -6.003105801e-21)
(-0 1.003821623e-20 -5.363128617e-21)
(-0 1.777337774e-21 -8.851545094e-22)
(-0 1.96335284e-22 -9.193223802e-23)
(-0 8.490238231e-23 -3.559226507e-23)
(-0 5.136530635e-23 -4.426411193e-23)
(-0 3.75200003e-23 -3.200758319e-23)
(-0 2.293977486e-24 -6.072293345e-25)
(-0 -0 0)
(-0 -0 0)
(-0 -0 0)
(-0 -0 0)
(-0 -0 0)
(-0 0 -0)
(-0 0 -0)
(-0 0 0)
(-0 2.825323232e-14 -1.432391935e-13)
(-0 1.191704827e-11 -2.125388522e-11)
(-0 5.6844962e-11 -6.455825529e-11)
(-0 4.716052429e-11 -3.949037038e-11)
(-0 1.020971805e-10 -6.688609841e-11)
(-0 9.47378601e-11 -4.563174246e-11)
(-0 1.218222985e-06 -3.178284647e-07)
(-0 5.615016807e-05 -21.51265295)
(-0 1.844289749e-06 -14.18190495)
(-0 8.553890342e-09 -1.027403361e-08)
(-0 2.418409367e-13 -3.113723755e-13)
(-0 9.435451707e-13 -1.272020439e-12)
(-0 5.896385955e-13 -8.117050765e-13)
(-0 7.674608612e-14 -1.054624949e-13)
(-0 1.196592026e-13 -1.611477742e-13)
(-0 1.144412369e-13 -1.489761595e-13)
(-0 4.382718838e-14 -5.461993427e-14)
(-0 2.458336036e-14 -2.914639372e-14)
(-0 6.384362168e-15 -7.173825396e-15)
(-0 7.71515983e-15 -8.199991322e-15)
(-0 1.049387405e-14 -1.054252852e-14)
(-0 4.233928684e-15 -4.021480588e-15)
(-0 1.728308325e-15 -1.553291616e-15)
(-0 8.727294044e-17 -7.430696729e-17)
(-0 2.64315181e-16 -2.135146864e-16)
(-0 2.301397216e-16 -1.766661312e-16)
(-0 1.151929777e-16 -8.417343225e-17)
(-0 6.728743472e-17 -4.688238987e-17)
(-0 2.922245068e-17 -1.944688547e-17)
(-0 6.329713208e-18 -4.029817566e-18)
(-0 2.323316636e-18 -1.417297123e-18)
(-0 1.425949956e-18 -8.347644594e-19)
(-0 1.984476834e-19 -1.116366831e-19)
(-0 2.22674941e-20 -1.20569434e-20)
(-0 2.87366297e-21 -1.499109352e-21)
(-0 1.626859412e-20 -8.179993537e-21)
(-0 4.85875573e-21 -2.328726852e-21)
(-0 7.468400878e-22 -3.397842101e-22)
(-0 1.177985813e-22 -5.519796911e-23)
(-0 5.042435576e-23 -2.171835548e-23)
(-0 5.264737552e-23 -5.990908249e-24)
(-0 7.454561831e-24 -2.19882759e-24)
(-0 -0 -0)
(-0 -0 -0)
(-0 -0 0)
(-0 -0 0)
(-0 -0 -0)
(-0 -0 -0)
(-0 0 -0)
(-0 0 -0)
(-0 1.915041502e-14 -1.226873586e-13)
(-0 1.337818485e-13 -2.78401559e-13)
(-0 1.663373601e-11 -2.021409186e-11)
(-0 7.300909835e-11 -6.09671288e-11)
(-0 2.5022116e-11 -1.526953611e-11)
(-0 1.317767082e-10 -5.814107408e-11)
(-0 1.962828447e-06 -4.482141137e-07)
(-0 7.039553421e-05 -30.34352634)
(-0 2.346967105e-06 -22.40974234)
(-0 1.456494594e-08 -2.178086362e-08)
(-0 2.086197482e-12 -3.288022601e-12)
(-0 1.422007087e-12 -2.274702994e-12)
(-0 2.087369849e-13 -3.28606373e-13)
(-0 1.221817755e-14 -1.851574999e-14)
(-0 8.503095607e-14 -1.222764442e-13)
(-0 8.906061052e-14 -1.205086602e-13)
(-0 1.512249022e-13 -1.917087059e-13)
(-0 7.519605324e-14 -8.916423561e-14)
(-0 1.43837401e-14 -1.595425514e-14)
(-0 8.254704786e-15 -8.574327298e-15)
(-0 7.572430945e-15 -7.378680523e-15)
(-0 1.066838285e-14 -9.772041526e-15)
(-0 1.728541198e-15 -1.491695629e-15)
(-0 2.440328943e-16 -1.988645734e-16)
(-0 2.232595557e-16 -1.721935404e-16)
(-0 3.337329936e-16 -2.441566576e-16)
(-0 2.341572098e-16 -1.628430236e-16)
(-0 4.7974415e-17 -3.177977247e-17)
(-0 4.544316096e-17 -2.87297366e-17)
(-0 2.280286108e-17 -1.378380993e-17)
(-0 9.04139899e-18 -5.234604218e-18)
(-0 2.479121324e-18 -1.37696076e-18)
(-0 2.646006918e-19 -1.412019227e-19)
(-0 1.208124281e-20 -6.203652101e-21)
(-0 2.05866218e-20 -1.018057945e-20)
(-0 1.796008149e-20 -8.555223146e-21)
(-0 1.176817982e-20 -5.417939746e-21)
(-0 1.538752718e-21 -7.071117938e-22)
(-0 2.793459488e-22 -1.282691098e-22)
(-0 8.890448409e-23 -2.058130372e-23)
(-0 5.192120483e-23 7.261706969e-25)
(-0 6.076783027e-24 -2.160633965e-24)
(-0 -0 0)
(-0 -0 0)
(-0 -0 0)
(-0 -0 0)
(-0 -0 0)
(-0 -0 -0)
(-0 0 -0)
(-0 0 0)
(-0 2.809202357e-14 -3.098392633e-13)
(-0 8.886158526e-14 -2.593058578e-13)
(-0 8.655380538e-14 -1.24814553e-13)
(-0 3.864147813e-11 -3.461657191e-11)
(-0 1.007081445e-10 -6.127134306e-11)
(-0 8.336004077e-11 -3.502589189e-11)
(-0 2.813177443e-06 -6.317069766e-07)
(-0 8.561032493e-05 -47.03045434)
(-0 2.920140612e-06 -37.80870242)
(-0 2.052531102e-08 -3.962819999e-08)
(-0 2.454286536e-12 -4.746015488e-12)
(-0 6.732436482e-13 -1.252801772e-12)
(-0 6.756190587e-13 -1.179683198e-12)
(-0 4.713102004e-13 -7.619206821e-13)
(-0 2.271254963e-13 -3.380289366e-13)
(-0 3.33528348e-13 -4.565026526e-13)
(-0 3.001076981e-13 -3.783093059e-13)
(-0 1.049334714e-13 -1.221638767e-13)
(-0 6.076315056e-14 -6.555146901e-14)
(-0 1.529266542e-14 -1.534183597e-14)
(-0 1.509714783e-14 -1.413422687e-14)
(-0 2.618633711e-14 -2.295679227e-14)
(-0 7.122804127e-15 -5.866054348e-15)
(-0 6.517532581e-16 -5.05767118e-16)
(-0 5.368798076e-16 -3.936799619e-16)
(-0 1.9142741e-16 -1.329875843e-16)
(-0 4.68537551e-16 -3.091388487e-16)
(-0 1.396075881e-16 -8.768118108e-17)
(-0 6.197659245e-18 -3.713039482e-18)
(-0 3.518071022e-17 -2.014476181e-17)
(-0 2.273919303e-17 -1.246756654e-17)
(-0 4.459337095e-18 -2.345081002e-18)
(-0 2.825809824e-19 -1.427577805e-19)
(-0 1.491913033e-19 -7.251210176e-20)
(-0 5.861753296e-20 -2.743797293e-20)
(-0 3.546635597e-20 -1.59985947e-20)
(-0 1.785056389e-20 -7.821696942e-21)
(-0 3.067616478e-21 -1.321568941e-21)
(-0 7.60386064e-22 -3.031513513e-22)
(-0 2.475039088e-22 -8.578714599e-23)
(-0 5.927729525e-23 -1.05852313e-23)
(-0 1.258325523e-23 -3.282588321e-24)
(-0 8.822990331e-26 1.383998483e-26)
(-0 -0 0)
(-0 -0 0)
(-0 -0 0)
(-0 -0 0)
(-0 -0 -0)
(-0 0 -0)
(-0 0 0)
(-0 1.828728058e-14 -9.879031942e-13)
(-0 1.569508761e-14 -9.312700675e-14)
(-0 1.136611605e-13 -2.252212969e-13)
(-0 3.528851749e-12 -3.692399498e-12)
(-0 4.828499602e-11 -3.174293721e-11)
(-0 1.012041439e-10 -4.371817538e-11)
(-0 4.1368305e-06 -1.019281146e-06)
(-0 0.0001041661611 -77.54489744)
(-0 3.633165508e-06 -65.92648003)
(-0 3.475956179e-08 -8.520282475e-08)
(-0 2.728538105e-12 -6.22612731e-12)
(-0 1.757426505e-12 -3.631506097e-12)
(-0 1.196076406e-12 -2.215096963e-12)
(-0 6.812592759e-13 -1.130084696e-12)
(-0 1.389484479e-12 -2.072726363e-12)
(-0 5.243175027e-13 -7.074335565e-13)
(-0 5.796488962e-13 -7.118277706e-13)
(-0 3.296728095e-13 -3.707329796e-13)
(-0 6.349649576e-14 -6.576108378e-14)
(-0 8.715550632e-14 -8.356346547e-14)
(-0 1.105661482e-13 -9.86042371e-14)
(-0 2.086172687e-14 -1.737909917e-14)
(-0 2.237550261e-14 -1.747942154e-14)
(-0 6.69982011e-15 -4.925042837e-15)
(-0 6.031228953e-16 -4.185245424e-16)
(-0 3.397182475e-16 -2.231797023e-16)
(-0 5.85803643e-16 -3.653021736e-16)
(-0 3.261871303e-16 -1.935435681e-16)
(-0 9.634287415e-17 -5.45136419e-17)
(-0 8.716219471e-17 -4.712734889e-17)
(-0 2.030598738e-17 -1.051104489e-17)
(-0 9.509245098e-18 -4.72062039e-18)
(-0 2.312912183e-18 -1.102931549e-18)
(-0 4.020055137e-19 -1.844108595e-19)
(-0 3.19855192e-20 -1.413077436e-20)
(-0 8.427165215e-20 -3.590255824e-20)
(-0 3.071469295e-20 -1.265568581e-20)
(-0 4.84661965e-21 -1.920762339e-21)
(-0 1.233143152e-21 -4.513218355e-22)
(-0 4.504994869e-22 -1.546230497e-22)
(-0 9.826389231e-23 -2.16249763e-23)
(-0 1.071512058e-23 -2.080605939e-24)
(-0 7.006492322e-25 1.383998483e-25)
(-0 -0 0)
(-0 -0 0)
(-0 -0 0)
(-0 -0 0)
(-0 -0 0)
(-0 0 -0)
(-0 0 -0)
(-0 -1.924113518e-14 -6.405407606e-13)
(-0 4.309577055e-16 -3.15295449e-13)
(-0 2.864800539e-13 -1.033963327e-12)
(-0 2.05899752e-12 -2.770138057e-12)
(-0 1.645830813e-12 -1.232103873e-12)
(-0 8.435271149e-12 -3.922508246e-12)
(-0 4.542296664e-06 -1.241483183e-06)
(-0 0.0001275515876 -130.4176832)
(-0 4.568749045e-06 -115.9070293)
(-0 7.188150652e-08 -2.133551669e-07)
(-0 3.765466182e-12 -9.586729549e-12)
(-0 1.73172889e-12 -3.775027376e-12)
(-0 2.976741609e-12 -5.604548787e-12)
(-0 2.434587252e-12 -4.00728778e-12)
(-0 3.188391313e-13 -4.644003575e-13)
(-0 4.773894603e-13 -6.221159488e-13)
(-0 7.233880415e-13 -8.515978753e-13)
(-0 1.746055987e-13 -1.87244704e-13)
(-0 1.121182898e-13 -1.103182437e-13)
(-0 8.804456192e-14 -7.998501023e-14)
(-0 1.477017429e-13 -1.245648832e-13)
(-0 9.873615364e-14 -7.767297018e-14)
(-0 2.541029643e-14 -1.872515855e-14)
(-0 5.84536364e-15 -4.0502788e-15)
(-0 2.398820894e-15 -1.568168705e-15)
(-0 5.267674268e-16 -3.258765684e-16)
(-0 1.30409582e-15 -7.655525676e-16)
(-0 5.314439798e-16 -2.967820623e-16)
(-0 3.956696576e-16 -2.106765049e-16)
(-0 8.633527302e-17 -4.392185029e-17)
(-0 6.635100555e-18 -3.231327748e-18)
(-0 1.043124907e-17 -4.871687602e-18)
(-0 6.239863529e-18 -2.799233151e-18)
(-0 1.037945682e-18 -4.479193621e-19)
(-0 2.185656613e-19 -9.08488405e-20)
(-0 1.503399533e-19 -6.027886125e-20)
(-0 5.984881188e-20 -2.3174273e-20)
(-0 9.979782463e-21 -3.714501696e-21)
(-0 1.812184787e-21 -6.417849388e-22)
(-0 4.290093445e-22 -1.338588479e-22)
(-0 1.364418686e-22 -3.299470422e-23)
(-0 2.425473809e-23 -2.321410576e-24)
(-0 3.667595981e-25 -7.611991658e-26)
(-0 -0 -0)
(-0 -0 0)
(-0 -0 0)
(-0 -0 0)
(-0 -0 -0)
(-0 0 -0)
(-0 0 0)
(-0 -2.494172954e-14 -5.957049984e-13)
(-0 -6.892272405e-14 -6.551911521e-13)
(-0 3.03278369e-14 -6.984408079e-13)
(-0 1.997662771e-12 -4.052506817e-12)
(-0 9.007034251e-12 -8.093160763e-12)
(-0 9.382426366e-12 -4.827031176e-12)
(-0 2.804982604e-06 -8.313037037e-07)
(-0 0.0001856207098 -220.5247223)
(-0 6.125638581e-06 -202.9662889)
(-0 1.585433652e-07 -5.374288792e-07)
(-0 3.914856529e-12 -1.051442622e-11)
(-0 3.295903234e-12 -7.247013554e-12)
(-0 3.821414963e-12 -7.068624387e-12)
(-0 2.132426045e-12 -3.393702547e-12)
(-0 5.81484184e-13 -8.107227328e-13)
(-0 7.909438029e-13 -9.80219875e-13)
(-0 4.346796517e-13 -4.845252184e-13)
(-0 5.446824571e-13 -5.51417059e-13)
(-0 2.301460197e-13 -2.133306758e-13)
(-0 4.300997904e-13 -3.675464237e-13)
(-0 2.059353728e-13 -1.631993303e-13)
(-0 9.05806447e-14 -6.690761759e-14)
(-0 3.123178869e-14 -2.159831977e-14)
(-0 2.383599489e-14 -1.549320624e-14)
(-0 1.719633901e-15 -1.0542444e-15)
(-0 1.45594801e-15 -8.445038599e-16)
(-0 2.928237525e-15 -1.611501428e-15)
(-0 1.283249176e-15 -6.717483036e-16)
(-0 2.849392385e-16 -1.422072956e-16)
(-0 3.222918183e-17 -1.536770429e-17)
(-0 1.360011964e-17 -6.20772515e-18)
(-0 3.528291674e-18 -1.544392623e-18)
(-0 8.157791645e-18 -3.429957089e-18)
(-0 3.311088941e-18 -1.339233138e-18)
(-0 4.233936234e-19 -1.649580838e-19)
(-0 3.38918598e-19 -1.27378718e-19)
(-0 1.173516846e-19 -4.262972161e-20)
(-0 1.24536782e-20 -4.356015961e-21)
(-0 9.203308382e-22 -3.095004848e-22)
(-0 6.598517537e-22 -1.85344893e-22)
(-0 2.260985889e-22 -4.37447974e-23)
(-0 1.772934266e-23 -1.082707949e-24)
(-0 0 -0)
(-0 -0 0)
(-0 -0 -0)
(-0 -0 0)
(-0 -0 -0)
(-0 -0 -0)
(-0 0 -0)
(-0 0 0)
(-0 -2.838931187e-15 -6.031667829e-14)
(-0 -1.033554796e-13 -6.915311775e-13)
(-0 -3.52600652e-14 -2.373229921e-13)
(-0 2.041363335e-13 -9.601577353e-13)
(-0 4.750592596e-12 -5.587169661e-12)
(-0 1.696304199e-11 -1.000450971e-11)
(-0 0.0001934033803 -0.0001426967039)
(-0 0.0002415148007 -373.9433813)
(-0 8.711223336e-06 -351.9221447)
(-0 2.175595469e-07 -7.890422832e-07)
(-0 1.274824097e-13 -3.438498239e-13)
(-0 4.705198815e-12 -1.006787088e-11)
(-0 5.084759146e-12 -9.001855546e-12)
(-0 4.82061387e-12 -7.274108913e-12)
(-0 1.249620428e-12 -1.642733806e-12)
(-0 7.664777038e-13 -8.925374483e-13)
(-0 8.782759043e-13 -9.178213107e-13)
(-0 7.380418299e-13 -6.994502988e-13)
(-0 1.350683853e-12 -1.170872759e-12)
(-0 6.933664264e-13 -5.537521314e-13)
(-0 1.92090154e-13 -1.421993144e-13)
(-0 9.02458293e-14 -6.224878421e-14)
(-0 5.832024983e-14 -3.765381328e-14)
(-0 3.793247519e-14 -2.301547843e-14)
(-0 2.170986979e-14 -1.242281779e-14)
(-0 1.729895037e-14 -9.364962028e-15)
(-0 4.80988174e-15 -2.470436861e-15)
(-0 1.684476969e-15 -8.229404036e-16)
(-0 1.069300047e-16 -4.98052932e-17)
(-0 4.612448292e-17 -2.052580466e-17)
(-0 2.395378626e-17 -1.020418629e-17)
(-0 2.12344347e-17 -8.674731583e-18)
(-0 6.350440216e-18 -2.491999018e-18)
(-0 6.076090217e-18 -2.293748366e-18)
(-0 6.995304372e-19 -2.544054745e-19)
(-0 7.049541889e-19 -2.47352347e-19)
(-0 1.29913728e-19 -4.407146503e-20)
(-0 8.667312813e-21 -2.83725081e-21)
(-0 3.60591615e-21 -1.128566991e-21)
(-0 1.396833971e-21 -3.958485423e-22)
(-0 3.838961717e-22 -9.56958573e-23)
(-0 2.320965456e-23 -5.307634183e-24)
(-0 0 -0)
(-0 -0 0)
(-0 -0 -0)
(-0 -0 -0)
(-0 -0 -0)
(-0 -0 -0)
(-0 0 0)
(-0 0 -0)
(-0 -3.071053785e-40 -6.763811986e-39)
(-0 -3.135353161e-14 -1.894697807e-13)
(-0 -2.175827202e-14 -7.70633434e-14)
(-0 -1.647856822e-14 -2.036834723e-13)
(-0 8.115710684e-13 -1.50501764e-12)
(-0 3.43532384e-12 -2.467639758e-12)
(-0 0.000218482501 -0.0001915946806)
(-0 0.0001320590561 -633.4321997)
(-0 1.290912227e-05 -601.6286907)
(-0 2.864958567e-07 -1.04568302e-06)
(-0 6.558722815e-12 -1.705127279e-11)
(-0 4.522652358e-12 -9.156577962e-12)
(-0 1.021858228e-11 -1.696841905e-11)
(-0 7.245486971e-12 -1.020930434e-11)
(-0 4.822355011e-12 -5.905411728e-12)
(-0 2.28426366e-12 -2.474474945e-12)
(-0 3.317839129e-12 -3.222914699e-12)
(-0 3.366914342e-12 -2.96463927e-12)
(-0 2.087037548e-12 -1.68047122e-12)
(-0 1.663498865e-12 -1.233819515e-12)
(-0 5.321493098e-13 -3.658187056e-13)
(-0 8.045682621e-14 -5.153359179e-14)
(-0 1.272565584e-13 -7.629400874e-14)
(-0 9.69746409e-14 -5.463778198e-14)
(-0 8.305733394e-14 -4.413445509e-14)
(-0 2.093130184e-14 -1.052285563e-14)
(-0 7.481630977e-15 -3.568641676e-15)
(-0 2.432109412e-15 -1.103496382e-15)
(-0 2.962126729e-16 -1.28139073e-16)
(-0 2.314811737e-16 -9.567616576e-17)
(-0 9.060084124e-17 -3.584865454e-17)
(-0 3.077196841e-17 -1.167680031e-17)
(-0 8.390436479e-18 -3.058392238e-18)
(-0 8.835917172e-18 -3.098530256e-18)
(-0 2.484785445e-18 -8.394839852e-19)
(-0 1.039792215e-18 -3.389885231e-19)
(-0 1.06919075e-19 -3.368362812e-20)
(-0 1.504471847e-20 -4.579618936e-21)
(-0 7.351259074e-21 -2.137651228e-21)
(-0 1.881878986e-21 -5.176844893e-22)
(-0 2.114091767e-22 -5.544636944e-23)
(-0 0 -0)
(-0 0 -0)
(-0 -0 -0)
(-0 -0 0)
(-0 -0 -0)
(-0 -0 -0)
(-0 -0 -0)
(-0 0 -0)
(-0 0 0)
(-0 -3.907410428e-45 -8.477771103e-44)
(-0 -2.810208719e-14 -1.608182701e-13)
(-0 -7.105686057e-14 -2.021560804e-13)
(-0 -4.603091586e-15 -1.289852817e-14)
(-0 6.781261204e-13 -3.911615718e-12)
(-0 2.475479439e-13 -2.403801747e-13)
(-0 3.604376098e-06 -1.576791738e-06)
(-0 9.359546154e-05 -1064.128454)
(-0 1.973404613e-05 -1009.859223)
(-0 1.568382644e-07 -5.443864645e-07)
(-0 1.720600923e-11 -4.169023126e-11)
(-0 1.915139148e-11 -3.587574103e-11)
(-0 2.706231734e-12 -4.147089612e-12)
(-0 8.727631267e-12 -1.133896144e-11)
(-0 7.514816188e-12 -8.483546582e-12)
(-0 9.128929142e-12 -9.117244056e-12)
(-0 4.630417223e-12 -4.147657876e-12)
(-0 2.579947591e-12 -2.095239698e-12)
(-0 3.309285846e-12 -2.458157708e-12)
(-0 2.008817339e-12 -1.374765442e-12)
(-0 1.27343649e-12 -8.078756294e-13)
(-0 4.742670462e-13 -2.803836094e-13)
(-0 2.74191947e-13 -1.517493325e-13)
(-0 2.119015508e-13 -1.102259306e-13)
(-0 5.948847221e-14 -2.918733316e-14)
(-0 2.439099092e-14 -1.132323743e-14)
(-0 2.029667912e-14 -8.940730862e-15)
(-0 4.174704131e-15 -1.74939796e-15)
(-0 1.158205196e-15 -4.627740003e-16)
(-0 4.506583108e-16 -1.720554229e-16)
(-0 1.255286213e-16 -4.588188321e-17)
(-0 3.156349862e-17 -1.106454307e-17)
(-0 1.409696536e-17 -4.747161008e-18)
(-0 4.515552631e-18 -1.462976443e-18)
(-0 3.065149654e-18 -9.567867099e-19)
(-0 5.646714441e-19 -1.700696631e-19)
(-0 2.190401454e-20 -6.371731414e-21)
(-0 9.192071123e-21 -2.583606028e-21)
(-0 1.337451942e-21 -3.616632373e-22)
(-0 4.145192495e-22 -1.063309432e-22)
(-0 1.500202456e-22 -3.658599991e-23)
(-0 0 -0)
(-0 0 -0)
(-0 0 -0)
(-0 -0 0)
(-0 -0 -0)
(-0 -0 0)
(-0 -0 0)
(-0 0 -0)
(-0 0 0)
(-0 -7.231938282e-30 -1.496942146e-28)
(-0 -1.565584152e-17 -8.667918701e-17)
(-0 -7.259545437e-14 -1.830484313e-13)
(-0 -5.386966869e-14 -9.194124564e-14)
(-0 -3.178137142e-14 -1.317098954e-13)
(-0 3.819461417e-12 -6.226235995e-12)
(-0 3.828128743e-06 -2.120766608e-06)
(-0 0.0002757040675 -1756.560003)
(-0 2.98881505e-05 -1656.857454)
(-0 2.595651257e-10 -8.179153275e-10)
(-0 3.236263324e-11 -7.110612085e-11)
(-0 2.061554971e-11 -3.507719474e-11)
(-0 2.603564882e-11 -3.631020064e-11)
(-0 6.983969022e-12 -8.27192648e-12)
(-0 1.416275954e-11 -1.459616817e-11)
(-0 1.292099978e-11 -1.179369219e-11)
(-0 7.16462181e-12 -5.870319537e-12)
(-0 6.024282389e-12 -4.478264534e-12)
(-0 5.65562552e-12 -3.847442977e-12)
(-0 4.909714628e-12 -3.07856189e-12)
(-0 2.433571134e-12 -1.415031044e-12)
(-0 1.650889221e-12 -8.947992756e-13)
(-0 1.983573926e-13 -1.006700139e-13)
(-0 1.915327014e-13 -9.138119749e-14)
(-0 7.635204551e-14 -3.436510944e-14)
(-0 5.332624396e-14 -2.271318619e-14)
(-0 1.475097501e-14 -5.962335754e-15)
(-0 1.846517729e-15 -7.100824132e-16)
(-0 2.783428367e-16 -1.020692015e-16)
(-0 4.494997276e-17 -1.575127764e-17)
(-0 1.24053225e-17 -4.161999559e-18)
(-0 2.057373282e-17 -6.62038649e-18)
(-0 1.32490568e-17 -4.095822161e-18)
(-0 7.398814918e-18 -2.200695249e-18)
(-0 4.677127261e-18 -1.340403811e-18)
(-0 1.104283866e-18 -3.053017379e-19)
(-0 1.936265404e-19 -5.170421336e-20)
(-0 4.585365757e-20 -1.184341746e-20)
(-0 1.214588256e-20 -3.034072631e-21)
(-0 1.786273047e-21 -4.332493344e-22)
(-0 4.723852101e-22 -1.118984274e-22)
(-0 0 -0)
(-0 0 -0)
(-0 0 -0)
(-0 -0 0)
(-0 -0 0)
(-0 -0 0)
(-0 -0 0)
(-0 0 0)
(-0 0 -0)
(-0 -1.253876498e-26 -2.435050557e-25)
(-0 -4.053749269e-23 -2.098415791e-22)
(-0 -8.138752241e-15 -1.919786871e-14)
(-0 -9.791552684e-14 -1.351397106e-13)
(-0 -1.021170578e-13 -1.467820468e-13)
(-0 3.559065923e-14 -2.823358204e-13)
(-0 1.739178776e-08 -1.315054851e-08)
(-0 0.000289827792 -2818.906842)
(-0 4.767469363e-05 -2643.314336)
(-0 1.817072295e-10 -5.00479853e-10)
(-0 4.679628177e-11 -9.115864551e-11)
(-0 4.564385766e-11 -6.942085239e-11)
(-0 3.037006564e-11 -3.805909077e-11)
(-0 1.876642321e-11 -2.004377521e-11)
(-0 1.562166611e-11 -1.455443432e-11)
(-0 2.697066034e-11 -2.229484328e-11)
(-0 1.022877362e-11 -7.600253768e-12)
(-0 1.018852246e-11 -6.875193431e-12)
(-0 8.672290836e-12 -5.359512778e-12)
(-0 6.724490197e-12 -3.832719472e-12)
(-0 1.956265248e-12 -1.034443619e-12)
(-0 1.379490959e-12 -6.802111765e-13)
(-0 5.690764601e-13 -2.628261218e-13)
(-0 7.276713093e-14 -3.160097364e-14)
(-0 7.175160325e-14 -2.940130702e-14)
(-0 3.796598379e-14 -1.472454549e-14)
(-0 4.125917854e-14 -1.518753139e-14)
(-0 8.461605968e-15 -2.963674758e-15)
(-0 2.615283028e-15 -8.735745679e-16)
(-0 1.175270319e-15 -3.751706111e-16)
(-0 4.044843147e-16 -1.236327179e-16)
(-0 1.493423833e-16 -4.378445719e-17)
(-0 3.449206985e-17 -9.715554213e-18)
(-0 3.150090829e-17 -8.53763655e-18)
(-0 9.691764345e-18 -2.531001727e-18)
(-0 4.402977554e-18 -1.109292034e-18)
(-0 5.305663447e-19 -1.291073157e-19)
(-0 6.520150738e-20 -1.534577357e-20)
(-0 2.618110279e-20 -5.967362836e-21)
(-0 6.186222566e-21 -1.374262424e-21)
(-0 1.050557427e-21 -2.327190015e-22)
(-0 1.380434687e-22 -2.991166722e-23)
(-0 0 -0)
(-0 0 -0)
(-0 -0 0)
(-0 -0 0)
(-0 -0 0)
(-0 -0 0)
(-0 0 0)
(-0 0 -0)
(-0 -1.247384613e-23 -2.225989895e-22)
(-0 -4.909070038e-23 -2.306223115e-22)
(-0 -1.028484223e-15 -2.231458012e-15)
(-0 -1.117028822e-13 -1.367223355e-13)
(-0 -1.881466802e-13 -1.722853021e-13)
(-0 -1.850344429e-13 -3.989243349e-13)
(-0 4.632399483e-09 -5.653937599e-09)
(-0 0.000280796456 -4348.468734)
(-0 8.135115801e-05 -4075.654625)
(-0 1.017748567e-06 -2.381159357e-06)
(-0 7.969382923e-11 -1.350535e-10)
(-0 3.865891987e-11 -5.179348302e-11)
(-0 2.533714074e-11 -2.817837872e-11)
(-0 1.872551884e-11 -1.783423882e-11)
(-0 3.578076611e-11 -2.982259295e-11)
(-0 2.436106835e-11 -1.805601533e-11)
(-0 2.639651883e-11 -1.761462703e-11)
(-0 1.407018813e-11 -8.537259785e-12)
(-0 1.302650636e-11 -7.245304208e-12)
(-0 7.704385827e-12 -3.954780503e-12)
(-0 1.266402288e-12 -6.034198973e-13)
(-0 2.272410143e-12 -1.010096804e-12)
(-0 4.697011163e-13 -1.956213518e-13)
(-0 3.684788407e-14 -1.443416822e-14)
(-0 1.328439619e-13 -4.911187101e-14)
(-0 9.340733986e-14 -3.269013678e-14)
(-0 3.992970467e-14 -1.326529438e-14)
(-0 2.491923673e-14 -7.878107444e-15)
(-0 1.55561782e-15 -4.690730389e-16)
(-0 6.450612297e-16 -1.859038037e-16)
(-0 2.65128746e-16 -7.316767484e-17)
(-0 1.394230545e-16 -3.690897216e-17)
(-0 5.40123466e-17 -1.373811423e-17)
(-0 6.208158346e-17 -1.519449525e-17)
(-0 1.111408257e-17 -2.621121553e-18)
(-0 5.141772723e-18 -1.169985468e-18)
(-0 1.799806967e-18 -3.955625196e-19)
(-0 1.57053485e-19 -3.33745955e-20)
(-0 2.273239269e-20 -4.676982333e-21)
(-0 1.087919841e-20 -2.179628057e-21)
(-0 2.705473255e-21 -5.326473798e-22)
(-0 2.381283123e-22 -4.320811624e-23)
(-0 0 -0)
(-0 0 -0)
(-0 -0 -0)
(-0 -0 0)
(-0 -0 0)
(-0 -0 0)
(-0 0 0)
(-0 0 -0)
(-0 -6.105575575e-25 -9.575433625e-24)
(-0 -9.967668168e-23 -4.120161092e-22)
(-0 -6.707026964e-22 -1.290890576e-21)
(-0 -4.103187766e-14 -4.637812448e-14)
(-0 -2.432442129e-13 -1.866996974e-13)
(-0 -2.413045446e-13 -2.108900009e-13)
(-0 3.620679615e-09 -1.538523743e-08)
(-0 0.0002178663651 -6379.863315)
(-0 0.0001097839398 -6030.272038)
(-0 3.16113765e-06 -6.150438673e-06)
(-0 6.729132392e-11 -9.756146804e-11)
(-0 1.976949289e-11 -2.29996581e-11)
(-0 5.677377958e-11 -5.530906369e-11)
(-0 7.832994032e-11 -6.571110002e-11)
(-0 3.859289527e-11 -2.843761092e-11)
(-0 9.995721788e-11 -6.566534162e-11)
(-0 8.510253569e-12 -5.042586362e-12)
(-0 3.589706439e-11 -1.936580243e-11)
(-0 1.033256643e-11 -5.114716203e-12)
(-0 1.230707425e-11 -5.626609057e-12)
(-0 2.694018598e-12 -1.143942925e-12)
(-0 2.195156017e-12 -8.699437909e-13)
(-0 6.680235419e-13 -2.481356287e-13)
(-0 5.496996835e-13 -1.921011895e-13)
(-0 3.394562622e-13 -1.119832931e-13)
(-0 2.470771898e-13 -7.717463099e-14)
(-0 8.141987285e-14 -2.414486526e-14)
(-0 2.247393414e-14 -6.343021219e-15)
(-0 1.038515886e-14 -2.795941565e-15)
(-0 2.281228216e-15 -5.870483359e-16)
(-0 2.645570565e-16 -6.519797539e-17)
(-0 5.706259336e-17 -1.349059305e-17)
(-0 1.791410597e-16 -4.069469437e-17)
(-0 7.51235682e-17 -1.642212349e-17)
(-0 6.570223838e-18 -1.384035504e-18)
(-0 3.864219821e-18 -7.854262346e-19)
(-0 2.166817794e-18 -4.254586247e-19)
(-0 4.663694113e-19 -8.855589776e-20)
(-0 5.734679237e-20 -1.054357882e-20)
(-0 1.366649113e-20 -2.436076609e-21)
(-0 4.487331379e-21 -7.621712743e-22)
(-0 5.487835661e-22 -8.559175935e-23)
(-0 4.514430053e-23 -6.999572329e-24)
(-0 0 -0)
(-0 -0 -0)
(-0 -0 0)
(-0 -0 -0)
(-0 -0 -0)
(-0 0 -0)
(-0 0 -0)
(-0 -2.031244923e-26 -2.673897797e-25)
(-0 -4.19828745e-22 -1.474981451e-21)
(-0 -1.07402087e-21 -1.770062038e-21)
(-0 -6.310830763e-21 -6.297099084e-21)
(-0 -9.643968813e-14 -6.679965389e-14)
(-0 -9.670315809e-15 -5.724895025e-15)
(-0 -1.132697218e-09 -2.309642792e-09)
(-0 7.057544988e-05 -8824.117463)
(-0 -6.097033868e-05 -8491.53341)
(-0 2.808324601e-05 -4.544685183e-05)
(-0 2.367148542e-10 -2.889584742e-10)
(-0 2.080442287e-10 -2.070176229e-10)
(-0 1.699824476e-10 -1.429572849e-10)
(-0 8.316207305e-11 -6.058078917e-11)
(-0 1.272184509e-10 -8.171874098e-11)
(-0 3.118320803e-11 -1.790556031e-11)
(-0 1.656855378e-11 -8.597258983e-12)
(-0 1.495880418e-11 -7.076705805e-12)
(-0 1.729600292e-11 -7.515448779e-12)
(-0 1.427304398e-11 -5.732365567e-12)
(-0 8.115074859e-12 -3.028820603e-12)
(-0 1.783346047e-12 -6.214899789e-13)
(-0 9.076178062e-13 -2.965697373e-13)
(-0 5.984490296e-13 -1.840266488e-13)
(-0 4.399814691e-13 -1.27747255e-13)
(-0 8.824560199e-14 -2.426405186e-14)
(-0 7.555449717e-14 -1.972647196e-14)
(-0 3.664136289e-14 -9.106230783e-15)
(-0 9.647649052e-15 -2.28735098e-15)
(-0 7.205211491e-15 -1.633005024e-15)