/*--------------------------------*- C++ -*----------------------------------*\
  =========                 |
  \\      /  F ield         | OpenFOAM: The Open Source CFD Toolbox
   \\    /   O peration     | Website:  https://openfoam.org
    \\  /    A nd           | Version:  6
     \\/     M anipulation  |
\*---------------------------------------------------------------------------*/
FoamFile
{
    version     2.0;
    format      ascii;
    class       volScalarField;
    location    "0.14";
    object      Num_divU;
}
// * * * * * * * * * * * * * * * * * * * * * * * * * * * * * * * * * * * * * //

dimensions      [0 0 -1 0 0 0 0];

internalField   nonuniform List<scalar> 
2500
(
-1.172953138e-07
3.191428239e-08
8.259715502e-08
1.333009025e-08
-2.223732044e-08
1.428731629e-08
4.599025404e-08
1.203140089e-08
7.577099011e-08
-7.99142855e-22
-1.593825173e-17
-3.583095957e-17
-5.451483909e-17
-7.268491034e-17
-9.061441062e-17
-1.083453304e-16
-1.258603601e-16
-1.431257591e-16
-1.601066858e-16
-1.767739759e-16
-1.930998888e-16
-2.09055817e-16
-2.246145487e-16
-2.397516722e-16
-2.544454054e-16
-2.686755651e-16
-2.824232709e-16
-2.956710393e-16
-3.084032864e-16
-3.206064872e-16
-3.322692784e-16
-3.433821917e-16
-3.539375227e-16
-3.639291021e-16
-3.733520604e-16
-3.822028416e-16
-3.904789429e-16
-3.981789033e-16
-4.053020845e-16
-4.118487755e-16
-4.178198228e-16
-4.232166019e-16
-4.280409604e-16
-4.322949959e-16
-4.359810231e-16
-4.391015496e-16
-4.416591715e-16
-4.436564762e-16
-4.450955592e-16
-4.459754909e-16
-1.361774575e-07
-4.431077869e-08
-2.130440431e-08
1.341901101e-07
2.275183396e-07
-1.63384255e-09
-2.575994605e-07
-5.835899882e-07
-1.141063617e-07
-3.181687909e-17
-6.666191464e-17
-1.009701568e-16
-1.336167728e-16
-1.656649162e-16
-1.973234627e-16
-2.28578564e-16
-2.593796447e-16
-2.896719148e-16
-3.19398345e-16
-3.485064477e-16
-3.769481511e-16
-4.04677506e-16
-4.316510966e-16
-4.578287466e-16
-4.831738049e-16
-5.076528078e-16
-5.312355225e-16
-5.538948754e-16
-5.756072205e-16
-5.963525403e-16
-6.16114026e-16
-6.348779901e-16
-6.526333988e-16
-6.693717328e-16
-6.850866649e-16
-6.997738035e-16
-7.13430647e-16
-7.260561507e-16
-7.376508168e-16
-7.482160967e-16
-7.577545328e-16
-7.662693837e-16
-7.737644151e-16
-7.802439854e-16
-7.857128966e-16
-7.901769362e-16
-7.936439549e-16
-7.96127879e-16
-7.97661532e-16
-3.52108698e-16
-2.568421536e-07
3.457927451e-08
1.240127556e-08
3.106963908e-08
1.945970079e-07
1.639298611e-07
1.063279558e-07
4.994284325e-08
-8.380293597e-08
-2.605973616e-17
-5.553746486e-17
-8.518998015e-17
-1.13563704e-16
-1.414906495e-16
-1.691024422e-16
-1.963735905e-16
-2.23254673e-16
-2.496968034e-16
-2.75649528e-16
-3.010675784e-16
-3.259099286e-16
-3.501364377e-16
-3.737078839e-16
-3.965880784e-16
-4.187443697e-16
-4.401478301e-16
-4.607723097e-16
-4.805944577e-16
-4.99593619e-16
-5.177519901e-16
-5.350546263e-16
-5.514891427e-16
-5.670457357e-16
-5.81716769e-16
-5.954965274e-16
-6.083811097e-16
-6.203681844e-16
-6.314568857e-16
-6.41647403e-16
-6.509410915e-16
-6.59340032e-16
-6.668468967e-16
-6.73464898e-16
-6.791975021e-16
-6.840482974e-16
-6.880208888e-16
-6.911182676e-16
-6.933405231e-16
-6.946749981e-16
-3.430441954e-16
-2.07717e-07
-7.128826337e-09
-2.42544061e-08
-3.56483595e-08
2.90581656e-08
2.169864778e-08
-7.048306049e-08
-8.551673064e-08
-1.463090302e-08
-2.565252692e-17
-5.45425611e-17
-8.371446596e-17
-1.116708649e-16
-1.392051063e-16
-1.664328087e-16
-1.933254793e-16
-2.198333883e-16
-2.459095575e-16
-2.71504281e-16
-2.965718734e-16
-3.210715974e-16
-3.449642619e-16
-3.682113602e-16
-3.907766848e-16
-4.126279645e-16
-4.337366238e-16
-4.540771478e-16
-4.736268442e-16
-4.923654134e-16
-5.102753647e-16
-5.273417632e-16
-5.435524002e-16
-5.588974879e-16
-5.733693447e-16
-5.869624581e-16
-5.996729358e-16
-6.114985345e-16
-6.224383252e-16
-6.324926497e-16
-6.416626563e-16
-6.499504396e-16
-6.573585722e-16
-6.638899973e-16
-6.695479127e-16
-6.74335348e-16
-6.782549232e-16
-6.813082467e-16
-6.834944737e-16
-6.848084475e-16
-3.422565177e-16
-6.892739799e-08
-1.698611712e-07
-1.491226503e-07
-2.01611488e-08
9.728756102e-08
1.231049005e-07
-1.142013596e-08
-1.701212405e-07
3.4776087e-08
-2.56370857e-17
-5.447866898e-17
-8.361670688e-17
-1.115431815e-16
-1.390493773e-16
-1.662500615e-16
-1.931156666e-16
-2.195963461e-16
-2.456456533e-16
-2.712147791e-16
-2.962569226e-16
-3.207308193e-16
-3.44597614e-16
-3.678193696e-16
-3.903600291e-16
-4.121870876e-16
-4.332718434e-16
-4.535890659e-16
-4.731160811e-16
-4.918329236e-16
-5.09722049e-16
-5.267686004e-16
-5.429602426e-16
-5.58287172e-16
-5.727417264e-16
-5.863183117e-16
-5.990131564e-16
-6.10823967e-16
-6.217498801e-16
-6.317911847e-16
-6.409490946e-16
-6.492256122e-16
-6.566232323e-16
-6.631447725e-16
-6.687932283e-16
-6.735713208e-16
-6.774813256e-16
-6.805246696e-16
-6.827012434e-16
-6.840097227e-16
-3.422550487e-16
7.776812056e-08
-1.386928219e-07
-2.063293585e-07
-8.829877312e-08
5.594001901e-08
9.387498145e-08
1.394556432e-08
-2.467729846e-07
2.201919193e-08
-2.564948973e-17
-5.449675241e-17
-8.364515959e-17
-1.115803305e-16
-1.390926161e-16
-1.663009925e-16
-1.931732376e-16
-2.196601318e-16
-2.45714564e-16
-2.712889967e-16
-2.963364821e-16
-3.208147441e-16
-3.446849503e-16
-3.679096291e-16
-3.904530682e-16
-4.122826619e-16
-4.333696114e-16
-4.536885068e-16
-4.73216963e-16
-4.919349497e-16
-5.098250715e-16
-5.26872427e-16
-5.430646639e-16
-5.583919054e-16
-5.728465171e-16
-5.864228689e-16
-5.991171907e-16
-6.109272391e-16
-6.218521721e-16
-6.318922388e-16
-6.410486404e-16
-6.493233619e-16
-6.567188691e-16
-6.63237853e-16
-6.688831955e-16
-6.736575483e-16
-6.775630588e-16
-6.806013545e-16
-6.827730625e-16
-6.84078189e-16
-3.42332668e-16
1.0488317e-07
-7.817224424e-08
-1.710326427e-07
-8.993273056e-08
-5.266383233e-10
1.047431237e-08
-2.756724148e-08
-2.163558187e-07
-4.829015725e-08
-2.566279336e-17
-5.45216979e-17
-8.368355472e-17
-1.116325265e-16
-1.391535579e-16
-1.66373005e-16
-1.9325508e-16
-2.197521001e-16
-2.458150991e-16
-2.713974853e-16
-2.964529803e-16
-3.209387398e-16
-3.44815542e-16
-3.680461094e-16
-3.905950902e-16
-4.124300137e-16
-4.335219192e-16
-4.538453833e-16
-4.733778935e-16
-4.92099571e-16
-5.099930294e-16
-5.270433908e-16
-5.43238315e-16
-5.585679101e-16
-5.730244317e-16
-5.866023219e-16
-5.992977856e-16
-6.111085796e-16
-6.220338665e-16
-6.320739461e-16
-6.412299993e-16
-6.495039734e-16
-6.568982917e-16
-6.634156443e-16
-6.690588288e-16
-6.738304691e-16
-6.777328364e-16
-6.80767668e-16
-6.829361166e-16
-6.842388429e-16
-3.424217513e-16
1.504932771e-08
-8.727205816e-08
-9.979750273e-08
5.129071252e-09
-5.202800617e-08
-3.244524044e-08
-1.123280138e-07
-5.794008429e-08
-1.139423298e-07
-2.567478121e-17
-5.454563112e-17
-8.371993442e-17
-1.116856418e-16
-1.392167838e-16
-1.664465996e-16
-1.933380609e-16
-2.198457022e-16
-2.459182649e-16
-2.715090307e-16
-2.965725953e-16
-3.210662238e-16
-3.449501644e-16
-3.681871767e-16
-3.90742272e-16
-4.125829691e-16
-4.336803797e-16
-4.540089075e-16
-4.735460822e-16
-4.922719935e-16
-5.10169301e-16
-5.272231883e-16
-5.434212097e-16
-5.587535178e-16
-5.732123793e-16
-5.867921953e-16
-5.994891107e-16
-6.11300995e-16
-6.222269807e-16
-6.322673518e-16
-6.414233017e-16
-6.496968051e-16
-6.570902321e-16
-6.636062865e-16
-6.692477512e-16
-6.740172849e-16
-6.779171905e-16
-6.809494938e-16
-6.831155317e-16
-6.844163481e-16
-3.42514855e-16
-1.174602903e-07
-1.286939545e-07
-3.041267385e-08
8.182948546e-08
-5.715101143e-08
-1.344701567e-08
-1.258255219e-07
9.799407666e-08
-8.778743939e-08
-2.568558485e-17
-5.456683299e-17
-8.37500695e-17
-1.117351303e-16
-1.392807573e-16
-1.665204533e-16
-1.934206077e-16
-2.199379976e-16
-2.460203813e-16
-2.716199667e-16
-2.966918453e-16
-3.211933139e-16
-3.450845278e-16
-3.683283105e-16
-3.908896665e-16
-4.12736343e-16
-4.338394676e-16
-4.541733371e-16
-4.737154442e-16
-4.924459008e-16
-5.103473517e-16
-5.274049788e-16
-5.436063862e-16
-5.589416647e-16
-5.734030397e-16
-5.869849532e-16
-5.996836085e-16
-6.114967671e-16
-6.224236452e-16
-6.324644801e-16
-6.416205667e-16
-6.498938082e-16
-6.572865954e-16
-6.638016654e-16
-6.694417355e-16
-6.742096076e-16
-6.78107653e-16
-6.811379346e-16
-6.833021268e-16
-6.846013321e-16
-3.426101238e-16
-2.042199561e-07
-1.179002499e-07
4.602092865e-08
2.798811557e-08
9.442836528e-08
-1.986097414e-08
4.036154272e-08
1.869045096e-07
6.828960601e-08
-2.569411838e-17
-5.45861589e-17
-8.377079429e-17
-1.117759851e-16
-1.39342009e-16
-1.665928118e-16
-1.935025957e-16
-2.200289269e-16
-2.461204008e-16
-2.717290904e-16
-2.968095945e-16
-3.213190365e-16
-3.452176437e-16
-3.684682241e-16
-3.910359531e-16
-4.128887412e-16
-4.339976242e-16
-4.543369707e-16
-4.738841843e-16
-4.926193489e-16
-5.105251504e-16
-5.275867121e-16
-5.437916868e-16
-5.591300959e-16
-5.735942104e-16
-5.871784268e-16
-5.998789547e-16
-6.116935544e-16
-6.226215068e-16
-6.326630316e-16
-6.418194402e-16
-6.500925806e-16
-6.57484968e-16
-6.639992924e-16
-6.696383438e-16
-6.744048865e-16
-6.78301442e-16
-6.813301738e-16
-6.834928159e-16
-6.847906192e-16
-3.427062844e-16
-1.410446572e-07
-1.250185268e-08
9.010223365e-08
-2.608468107e-09
2.545701642e-07
-6.258999968e-09
3.553624895e-07
3.872878929e-07
2.372595434e-07
-2.569778599e-17
-5.460792831e-17
-8.37844562e-17
-1.1180646e-16
-1.393960634e-16
-1.666601055e-16
-1.935823485e-16
-2.201180981e-16
-2.462181423e-16
-2.718357012e-16
-2.969249187e-16
-3.214425104e-16
-3.453485518e-16
-3.686060082e-16
-3.911801197e-16
-4.130389651e-16
-4.341536406e-16
-4.544984657e-16
-4.740508175e-16
-4.927908009e-16
-5.10701024e-16
-5.27766666e-16
-5.43975349e-16
-5.593170367e-16
-5.73784025e-16
-5.873706686e-16
-6.000731877e-16
-6.118894568e-16
-6.228186029e-16
-6.328609974e-16
-6.420178488e-16
-6.502911777e-16
-6.576833342e-16
-6.641971431e-16
-6.698354114e-16
-6.746009269e-16
-6.784962907e-16
-6.815237146e-16
-6.836850285e-16
-6.849815935e-16
-3.428019827e-16
-4.26256969e-08
1.201164362e-07
1.282299292e-07
1.274818592e-07
1.309636462e-07
2.900679769e-07
6.237480405e-07
8.267000666e-07
2.141348849e-07
-2.569447829e-17
-5.463513681e-17
-8.380166983e-17
-1.118321367e-16
-1.394420334e-16
-1.66720594e-16
-1.936572835e-16
-2.202037129e-16
-2.463124824e-16
-2.7193877e-16
-2.970366935e-16
-3.215624723e-16
-3.454760134e-16
-3.687403688e-16
-3.913209515e-16
-4.131858021e-16
-4.343061676e-16
-4.546563906e-16
-4.742138442e-16
-4.92958617e-16
-5.108733261e-16
-5.279430898e-16
-5.441555054e-16
-5.595005586e-16
-5.739704927e-16
-5.875597229e-16
-6.002643749e-16
-6.120823814e-16
-6.230128808e-16
-6.330562506e-16
-6.422137535e-16
-6.504873368e-16
-6.578795119e-16
-6.643930171e-16
-6.700307181e-16
-6.747954617e-16
-6.78689853e-16
-6.817161742e-16
-6.838763344e-16
-6.851716859e-16
-3.428960107e-16
7.326637389e-09
1.681907259e-07
2.182110038e-07
2.138984977e-07
3.776300078e-08
8.222031911e-07
5.903194661e-07
1.073223372e-06
-2.489799602e-08
-2.568804703e-17
-5.466204528e-17
-8.383412382e-17
-1.118622045e-16
-1.394830906e-16
-1.66775306e-16
-1.937264863e-16
-2.202843587e-16
-2.464023813e-16
-2.720373789e-16
-2.971437156e-16
-3.216774995e-16
-3.455985184e-16
-3.688698736e-16
-3.914569386e-16
-4.133278333e-16
-4.344538058e-16
-4.548092888e-16
-4.743716792e-16
-4.931211404e-16
-5.1104023e-16
-5.281140975e-16
-5.4433026e-16
-5.596787248e-16
-5.741516733e-16
-5.877434834e-16
-6.004503958e-16
-6.122702274e-16
-6.232021738e-16
-6.332466391e-16
-6.424049207e-16
-6.506789494e-16
-6.580712735e-16
-6.64584616e-16
-6.702219299e-16
-6.749860409e-16
-6.788796164e-16
-6.819049884e-16
-6.840641287e-16
-6.853583573e-16
-3.429870127e-16
-4.900585585e-10
1.34704134e-07
3.306972504e-07
2.205096698e-07
3.06131181e-07
9.622911909e-07
2.717777268e-07
4.832793538e-07
-1.60364697e-07
-2.568986611e-17
-5.467276527e-17
-8.387873573e-17
-1.118987184e-16
-1.395218325e-16
-1.668260354e-16
-1.937900451e-16
-2.203588658e-16
-2.464866657e-16
-2.72130668e-16
-2.972452742e-16
-3.217865391e-16
-3.457146817e-16
-3.689928336e-16
-3.915864383e-16
-4.134633832e-16
-4.345949142e-16
-4.549555523e-16
-4.745227185e-16
-4.932766432e-16
-5.111999723e-16
-5.282777988e-16
-5.444976624e-16
-5.598494652e-16
-5.743254322e-16
-5.879199112e-16
-6.00629056e-16
-6.124507751e-16
-6.233842591e-16
-6.334299145e-16
-6.425890277e-16
-6.508636415e-16
-6.582561797e-16
-6.64769526e-16
-6.704066002e-16
-6.751702187e-16
-6.790631411e-16
-6.820876886e-16
-6.842458442e-16
-6.855389994e-16
-3.430737636e-16
-3.146319323e-08
1.01476013e-07
3.417774725e-07
2.444319629e-07
5.825453413e-07
6.864727787e-07
1.713727059e-07
-7.569441553e-07
-1.11149313e-07
-2.571023861e-17
-5.467979453e-17
-8.393550698e-17
-1.119449457e-16
-1.395628301e-16
-1.668757468e-16
-1.9384922e-16
-2.204273171e-16
-2.465645316e-16
-2.722176375e-16
-2.973402565e-16
-3.218885806e-16
-3.458232666e-16
-3.691078832e-16
-3.917077763e-16
-4.135907073e-16
-4.347277608e-16
-4.550934027e-16
-4.746651408e-16
-4.934233771e-16
-5.113507231e-16
-5.284323719e-16
-5.446557696e-16
-5.600108333e-16
-5.744897208e-16
-5.880867956e-16
-6.007982015e-16
-6.126218271e-16
-6.235568581e-16
-6.33603771e-16
-6.427638193e-16
-6.51039028e-16
-6.5843197e-16
-6.649454061e-16
-6.70582311e-16
-6.753455892e-16
-6.792379373e-16
-6.822617598e-16
-6.844189618e-16
-6.857111197e-16
-3.431549215e-16
-5.991981471e-08
1.156229384e-07
2.584868874e-07
3.257841422e-07
5.428908599e-07
3.480756717e-07
5.016365136e-07
-1.629686979e-06
1.914830317e-07
-2.574140244e-17
-5.467583398e-17
-8.398224309e-17
-1.119919211e-16
-1.39604978e-16
-1.669242672e-16
-1.939048053e-16
-2.204904073e-16
-2.466359755e-16
-2.722975676e-16
-2.974278668e-16
-3.21982713e-16
-3.459233082e-16
-3.692137249e-16
-3.918195106e-16
-4.137081667e-16
-4.348505711e-16
-4.552210476e-16
-4.747972086e-16
-4.935594957e-16
-5.114906513e-16
-5.285758371e-16
-5.448025799e-16
-5.601607472e-16
-5.746424864e-16
-5.882420356e-16
-6.009556785e-16
-6.127811685e-16
-6.23717768e-16
-6.337659037e-16
-6.429269288e-16
-6.512028199e-16
-6.585961651e-16
-6.651097736e-16
-6.707466338e-16
-6.755096237e-16
-6.794014995e-16
-6.824246307e-16
-6.845810494e-16
-6.858721539e-16
-3.432293884e-16
-7.272434082e-08
1.543274315e-07
1.615521189e-07
3.356588635e-07
2.244983347e-07
-1.64697615e-07
5.150921687e-07
-1.625044474e-06
3.212973489e-07
-2.577653742e-17
-5.467938864e-17
-8.400877499e-17
-1.12029814e-16
-1.39644137e-16
-1.66968917e-16
-1.939554009e-16
-2.205479258e-16
-2.467008543e-16
-2.723698444e-16
-2.975070401e-16
-3.220679158e-16
-3.460138627e-16
-3.693094189e-16
-3.919203775e-16
-4.138142855e-16
-4.34961666e-16
-4.553367384e-16
-4.749170912e-16
-4.936831719e-16
-5.116178656e-16
-5.287063638e-16
-5.449362178e-16
-5.602972635e-16
-5.747816171e-16
-5.883835773e-16
-6.010993026e-16
-6.12926586e-16
-6.238647421e-16
-6.33914101e-16
-6.43076081e-16
-6.513526927e-16
-6.587464995e-16
-6.652603235e-16
-6.708971981e-16
-6.756599577e-16
-6.795514199e-16
-6.825739451e-16
-6.847295792e-16
-6.860197486e-16
-3.432958845e-16
-9.985692187e-08
1.29341051e-07
9.446391107e-08
2.747696391e-07
8.065259127e-08
-3.786904074e-07
8.791459368e-07
-3.391793442e-07
1.657358615e-07
-2.580260555e-17
-5.471481735e-17
-8.402716014e-17
-1.120584615e-16
-1.396787983e-16
-1.670079271e-16
-1.939996367e-16
-2.205990125e-16
-2.467585992e-16
-2.724337127e-16
-2.975767459e-16
-3.221430515e-16
-3.460938104e-16
-3.693938965e-16
-3.920093544e-16
-4.139077568e-16
-4.350595725e-16
-4.55438855e-16
-4.75023082e-16
-4.937926704e-16
-5.117305786e-16
-5.288220855e-16
-5.450547592e-16
-5.604184095e-16
-5.74905218e-16
-5.885093597e-16
-6.012270429e-16
-6.130560424e-16
-6.239956216e-16
-6.340461978e-16
-6.432091228e-16
-6.514864097e-16
-6.588807171e-16
-6.653948031e-16
-6.710316713e-16
-6.757942873e-16
-6.796853744e-16
-6.827073576e-16
-6.8486225e-16
-6.861515267e-16
-3.433533603e-16
-1.535815214e-07
1.219191845e-08
-5.290245096e-09
1.587204729e-07
1.094220938e-07
-6.332403057e-07
8.290443424e-07
9.843919863e-07
1.126055618e-07
-2.580697919e-17
-5.475931937e-17
-8.404000703e-17
-1.12077871e-16
-1.397069078e-16
-1.670400004e-16
-1.94036537e-16
-2.206425467e-16
-2.468083452e-16
-2.724883819e-16
-2.976360219e-16
-3.222069144e-16
-3.461620011e-16
-3.694660389e-16
-3.920852574e-16
-4.139873935e-16
-4.351429864e-16
-4.555258963e-16
-4.751135282e-16
-4.938862785e-16
-5.11827078e-16
-5.289212659e-16
-5.451564066e-16
-5.60522432e-16
-5.750113535e-16
-5.886174678e-16
-6.013369302e-16
-6.13167482e-16
-6.241084145e-16
-6.341600961e-16
-6.433238989e-16
-6.516019111e-16
-6.5899665e-16
-6.655109996e-16
-6.711479481e-16
-6.759104339e-16
-6.798012076e-16
-6.828226557e-16
-6.849768831e-16
-6.862653329e-16
-3.43400797e-16
-2.219429441e-07
-1.447623343e-07
-1.883397427e-07
-2.434461474e-08
3.348906655e-07
-5.867761461e-07
-6.472688293e-09
1.242542188e-06
7.917889587e-08
-2.579844566e-17
-5.479196848e-17
-8.404837371e-17
-1.120903988e-16
-1.397280878e-16
-1.670649918e-16
-1.940658532e-16
-2.206775133e-16
-2.468485963e-16
-2.725327226e-16
-2.976838685e-16
-3.22258432e-16
-3.462172586e-16
-3.695246742e-16
-3.921469807e-16
-4.140521165e-16
-4.352106554e-16
-4.555965344e-16
-4.751870355e-16
-4.939624296e-16
-5.119057445e-16
-5.29002207e-16
-5.452395431e-16
-5.606075109e-16
-5.750983127e-16
-5.887061525e-16
-6.014271551e-16
-6.132590856e-16
-6.242011734e-16
-6.342538936e-16
-6.434185262e-16
-6.516971461e-16
-6.590923204e-16
-6.656069278e-16
-6.712439562e-16
-6.760063192e-16
-6.79896801e-16
-6.829178433e-16
-6.850714526e-16
-6.86359085e-16
-3.434372446e-16
-2.634370809e-07
-2.38948238e-07
-3.928909961e-07
-3.43821275e-07
5.39010188e-07
6.432827379e-08
-7.72967379e-07
6.935060197e-07
9.811304483e-08
-2.579177797e-17
-5.47979519e-17
-8.404803901e-17
-1.120960355e-16
-1.397418425e-16
-1.670829259e-16
-1.940880309e-16
-2.207034997e-16
-2.468784778e-16
-2.725655545e-16
-2.977192505e-16
-3.222966483e-16
-3.462584519e-16
-3.695686635e-16
-3.921933949e-16
-4.141007465e-16
-4.352614339e-16
-4.556495238e-16
-4.752422057e-16
-4.940197704e-16
-5.119651074e-16
-5.29063434e-16
-5.453024881e-16
-5.60672107e-16
-5.751644861e-16
-5.887737367e-16
-6.014960263e-16
-6.133291349e-16
-6.242722812e-16
-6.343258297e-16
-6.434911658e-16
-6.517703472e-16
-6.591659312e-16
-6.656807827e-16
-6.713178635e-16
-6.760801479e-16
-6.799703727e-16
-6.829910443e-16
-6.851440631e-16
-6.86430991e-16
-3.434619002e-16
-2.382861948e-07
-1.923708523e-07
-4.683406098e-07
-7.003706078e-07
3.471800419e-07
7.209707598e-07
-1.088714075e-06
4.381336741e-08
1.087554884e-07
-2.578950664e-17
-5.478438596e-17
-8.403929793e-17
-1.120940972e-16
-1.397472654e-16
-1.670930519e-16
-1.941025065e-16
-2.207202465e-16
-2.468972813e-16
-2.725862721e-16
-2.977415814e-16
-3.223207486e-16
-3.462846715e-16
-3.695969167e-16
-3.922233807e-16
-4.141321527e-16
-4.352942537e-16
-4.556837531e-16
-4.752779624e-16
-4.940570577e-16
-5.120038455e-16
-5.291036097e-16
-5.453439747e-16
-5.607148587e-16
-5.752083652e-16
-5.888187099e-16
-6.015420362e-16
-6.133760783e-16
-6.243200382e-16
-6.343743187e-16
-6.435402805e-16
-6.518198874e-16
-6.59215828e-16
-6.657308534e-16
-6.713680266e-16
-6.761302391e-16
-6.800202712e-16
-6.830405396e-16
-6.851930988e-16
-6.864794191e-16
-3.434740022e-16
-1.441918267e-07
-2.058648622e-09
-2.752420511e-07
-7.308136002e-07
5.400787445e-08
1.061007462e-06
-7.596047358e-07
-1.379726233e-07
1.207731051e-07
-2.578598931e-17
-5.476627228e-17
-8.402884934e-17
-1.120872201e-16
-1.397453946e-16
-1.670953696e-16
-1.941083084e-16
-2.207268383e-16
-2.469044892e-16
-2.725942731e-16
-2.977503461e-16
-3.223303504e-16
-3.462953031e-16
-3.696086557e-16
-3.922359502e-16
-4.141453957e-16
-4.353080825e-16
-4.556982372e-16
-4.752932257e-16
-4.940731872e-16
-5.120208786e-16
-5.291215509e-16
-5.453627588e-16
-5.607344572e-16
-5.752287608e-16
-5.88839898e-16
-6.015639065e-16
-6.133986239e-16
-6.243431975e-16
-6.343980487e-16
-6.435644033e-16
-6.518444443e-16
-6.592406142e-16
-6.657558414e-16
-6.713930398e-16
-6.761551924e-16
-6.80045029e-16
-6.830649999e-16
-6.852171192e-16
-6.865028977e-16
-3.434730231e-16
-2.064109737e-08
2.381970503e-07
1.018951495e-07
-3.728343334e-07
-4.542105612e-08
1.021936295e-06
-2.127662023e-07
8.272633306e-08
1.515059116e-07
-2.577755158e-17
-5.475090421e-17
-8.40222667e-17
-1.120785823e-16
-1.397375442e-16
-1.67090424e-16
-1.941048201e-16
-2.207225636e-16
-2.468993915e-16
-2.72588966e-16
-2.977450192e-16
-3.223249383e-16
-3.462899042e-16
-3.696032078e-16
-3.922303944e-16
-4.141396321e-16
-4.353020561e-16
-4.556921664e-16
-4.752871681e-16
-4.940673316e-16
-5.120153003e-16
-5.291162917e-16
-5.453578424e-16
-5.607299264e-16
-5.75224601e-16
-5.888361146e-16
-6.015605477e-16
-6.133956735e-16
-6.2434062e-16
-6.343957853e-16
-6.435625137e-16
-6.518427679e-16
-6.59239138e-16
-6.657544689e-16
-6.713916907e-16
-6.761538011e-16
-6.800434792e-16
-6.830632124e-16
-6.852149913e-16
-6.86500267e-16
-3.434584469e-16
7.110205582e-08
4.143256379e-07
4.536875446e-07
1.604282237e-07
1.220594707e-07
8.7708778e-07
1.778019731e-07
2.744706255e-07
1.173266027e-07
-2.576860097e-17
-5.47432255e-17
-8.402356812e-17
-1.120709869e-16
-1.397244459e-16
-1.670780644e-16
-1.940916185e-16
-2.207073199e-16
-2.468819869e-16
-2.725700353e-16
-2.97724941e-16
-3.223038801e-16
-3.462678369e-16
-3.695801117e-16
-3.922061756e-16
-4.141142431e-16
-4.352756277e-16
-4.556647472e-16
-4.75259117e-16
-4.940387285e-16
-5.119863836e-16
-5.290870977e-16
-5.453285185e-16
-5.607004498e-16
-5.751950949e-16
-5.888066116e-16
-6.015311031e-16
-6.133663197e-16
-6.243114153e-16
-6.343667584e-16
-6.435336189e-16
-6.518140072e-16
-6.592104921e-16
-6.657258814e-16
-6.713631165e-16
-6.761251629e-16
-6.800147248e-16
-6.830342556e-16
-6.851857344e-16
-6.864707177e-16
-3.434300146e-16
9.802733621e-08
4.776351429e-07
6.179692763e-07
5.413547798e-07
3.654832224e-07
7.550195588e-07
3.517769373e-07
2.216327513e-07
3.139981593e-08
-2.576535553e-17
-5.474147584e-17
-8.403290345e-17
-1.120673534e-16
-1.39708196e-16
-1.670584042e-16
-1.940681867e-16
-2.20681074e-16
-2.468527198e-16
-2.725376839e-16
-2.97689828e-16
-3.222665625e-16
-3.462285327e-16
-3.695387957e-16
-3.921627772e-16
-4.140687882e-16
-4.352281932e-16
-4.556156507e-16
-4.752085044e-16
-4.939869375e-16
-5.119335479e-16
-5.290334434e-16
-5.452740945e-16
-5.606454595e-16
-5.751395887e-16
-5.887507544e-16
-6.014749341e-16
-6.133099872e-16
-6.242549581e-16
-6.343102308e-16
-6.434770856e-16
-6.517575143e-16
-6.59153986e-16
-6.656693969e-16
-6.713066e-16
-6.760686035e-16
-6.799580844e-16
-6.829774777e-16
-6.851287755e-16
-6.864134546e-16
-3.433874829e-16
8.447784205e-08
4.611285398e-07
5.820064676e-07
6.039771946e-07
4.259713044e-07
5.064551394e-07
2.372295175e-07
-1.136678511e-07
2.393333834e-08
-2.577118723e-17
-5.47377966e-17
-8.404125855e-17
-1.12065323e-16
-1.396906128e-16
-1.670323612e-16
-1.940343258e-16
-2.206433655e-16
-2.468117523e-16
-2.724923753e-16
-2.976400703e-16
-3.222129347e-16
-3.461715981e-16
-3.694788307e-16
-3.920998499e-16
-4.140028871e-16
-4.351595584e-16
-4.555444948e-16
-4.751351376e-16
-4.939116146e-16
-5.118565459e-16
-5.289549598e-16
-5.451943516e-16
-5.605645919e-16
-5.750577775e-16
-5.886681265e-16
-6.013917231e-16
-6.132262361e-16
-6.241708753e-16
-6.342259149e-16
-6.433925731e-16
-6.516728836e-16
-6.590692973e-16
-6.655846263e-16
-6.71221827e-16
-6.759837711e-16
-6.798731746e-16
-6.828924898e-16
-6.850436668e-16
-6.863282204e-16
-3.433307998e-16
6.27225324e-08
4.065244318e-07
4.166903724e-07
4.182074561e-07
2.525632632e-07
1.225421549e-07
-5.80249737e-08
-5.302260814e-07
1.311727875e-07
-2.578492353e-17
-5.473111745e-17
-8.403579214e-17
-1.120563696e-16
-1.396700157e-16
-1.670009544e-16
-1.939914781e-16
-2.205941775e-16
-2.467583706e-16
-2.72433906e-16
-2.975757885e-16
-3.2214322e-16
-3.460971768e-16
-3.694001162e-16
-3.920171528e-16
-4.139164133e-16
-4.350695018e-16
-4.554511227e-16
-4.750388116e-16
-4.938126485e-16
-5.117552215e-16
-5.288515462e-16
-5.450890759e-16
-5.604576955e-16
-5.749494894e-16
-5.885586669e-16
-6.012812721e-16
-6.131150583e-16
-6.240590458e-16
-6.341136065e-16
-6.4327996e-16
-6.515599935e-16
-6.589562718e-16
-6.654715031e-16
-6.711086218e-16
-6.758705409e-16
-6.797599413e-16
-6.827792059e-16
-6.849303479e-16
-6.862148287e-16
-3.432600909e-16
3.336184847e-08
3.14165098e-07
1.819181443e-07
1.093048869e-07
-7.308648509e-08
-2.327539189e-07
-1.904934453e-07
-5.421385851e-07
3.272429312e-07
-2.57974628e-17
-5.472862494e-17
-8.400978531e-17
-1.120330841e-16
-1.396417452e-16
-1.669626204e-16
-1.939413796e-16
-2.205350348e-16
-2.466924188e-16
-2.723614206e-16
-2.974965368e-16
-3.220574276e-16
-3.460053733e-16
-3.693029008e-16
-3.919148853e-16
-4.138094458e-16
-4.349581041e-16
-4.553356611e-16
-4.749196592e-16
-4.936901551e-16
-5.11629678e-16
-5.287233048e-16
-5.449584018e-16
-5.603249073e-16
-5.748148424e-16
-5.884224628e-16
-6.011437471e-16
-6.129764572e-16
-6.239196007e-16
-6.339734985e-16
-6.431393274e-16
-6.51419037e-16
-6.588150679e-16
-6.653301329e-16
-6.709671894e-16
-6.757290532e-16
-6.796184635e-16
-6.826377616e-16
-6.847889416e-16
-6.860734783e-16
-3.431755166e-16
-1.285576535e-08
1.799184122e-07
-6.42877764e-08
-2.045145932e-07
-3.833500077e-07
-3.659498499e-07
-5.316138147e-08
1.242314989e-07
4.456318398e-07
-2.579792539e-17
-5.473439772e-17
-8.39664248e-17
-1.119928073e-16
-1.396016603e-16
-1.669130065e-16
-1.938827115e-16
-2.204669999e-16
-2.466150099e-16
-2.722751185e-16
-2.974020938e-16
-3.219554545e-16
-3.458963699e-16
-3.691873769e-16
-3.917932678e-16
-4.136821821e-16
-4.348256246e-16
-4.551983654e-16
-4.747779269e-16
-4.935443791e-16
-5.114802812e-16
-5.285705171e-16
-5.448027049e-16
-5.601665653e-16
-5.746541968e-16
-5.882598443e-16
-6.009795155e-16
-6.128108382e-16
-6.237529032e-16
-6.338059634e-16
-6.429711425e-16
-6.512503736e-16
-6.586460622e-16
-6.651609459e-16
-6.707978999e-16
-6.755597715e-16
-6.794492108e-16
-6.824685893e-16
-6.846198861e-16
-6.859045662e-16
-3.430774326e-16
-7.205432453e-08
2.535779611e-08
-2.617987463e-07
-4.208467482e-07
-4.532984452e-07
-4.772225535e-08
-2.303560143e-09
1.064285869e-06
2.821374025e-07
-2.578108312e-17
-5.474518552e-17
-8.392224235e-17
-1.119444199e-16
-1.395526908e-16
-1.668522805e-16
-1.938134765e-16
-2.203888471e-16
-2.46526106e-16
-2.721754988e-16
-2.972928376e-16
-3.218375486e-16
-3.45770456e-16
-3.69053919e-16
-3.916527637e-16
-4.135350821e-16
-4.346724735e-16
-4.550396338e-16
-4.746140545e-16
-4.93375821e-16
-5.113073602e-16
-5.283937373e-16
-5.446223767e-16
-5.599831276e-16
-5.744681008e-16
-5.880714063e-16
-6.007891102e-16
-6.126188202e-16
-6.23559581e-16
-6.336116163e-16
-6.427760009e-16
-6.510546654e-16
-6.584499583e-16
-6.649646178e-16
-6.706014478e-16
-6.753632915e-16
-6.792528216e-16
-6.822723475e-16
-6.844238522e-16
-6.857087774e-16
-3.429662969e-16
-1.21821738e-07
-1.091872894e-07
-3.883693281e-07
-5.227350189e-07
-1.950661456e-07
6.497478896e-07
-2.061721942e-07
1.351698412e-06
4.846634559e-08
-2.575263703e-17
-5.472612291e-17
-8.387497824e-17
-1.118921122e-16
-1.394972415e-16
-1.667839384e-16
-1.937345494e-16
-2.20299575e-16
-2.464250788e-16
-2.720626347e-16
-2.971692295e-16
-3.217041987e-16
-3.45628096e-16
-3.689030287e-16
-3.914938602e-16
-4.133687369e-16
-4.344992246e-16
-4.548600657e-16
-4.744286829e-16
-4.931850465e-16
-5.111117229e-16
-5.281936161e-16
-5.444182463e-16
-5.597754353e-16
-5.742572693e-16
-5.878579244e-16
-6.005733684e-16
-6.124012198e-16
-6.233404538e-16
-6.333912864e-16
-6.425547873e-16
-6.508327724e-16
-6.582276441e-16
-6.647420012e-16
-6.703787151e-16
-6.751405936e-16
-6.790301989e-16
-6.820499508e-16
-6.842017265e-16
-6.854869893e-16
-3.428426517e-16
-1.309436101e-07
-1.721250841e-07
-4.27827693e-07
-5.042052311e-07
2.651285273e-07
1.290616377e-06
-8.879090882e-07
4.822841636e-07
-2.400870351e-07
-2.57259163e-17
-5.468353386e-17
-8.382473726e-17
-1.118353376e-16
-1.394332835e-16
-1.667088503e-16
-1.936471825e-16
-2.201993253e-16
-2.463116068e-16
-2.719366567e-16
-2.970317314e-16
-3.215560786e-16
-3.454699667e-16
-3.687353904e-16
-3.913172471e-16
-4.131838103e-16
-4.343066542e-16
-4.546604854e-16
-4.742225851e-16
-4.929729751e-16
-5.108941259e-16
-5.279710324e-16
-5.441911431e-16
-5.595443451e-16
-5.740227042e-16
-5.876203716e-16
-6.00333269e-16
-6.121590267e-16
-6.230966109e-16
-6.331460825e-16
-6.423085394e-16
-6.505858073e-16
-6.579801546e-16
-6.644942358e-16
-6.701308249e-16
-6.748927064e-16
-6.787825212e-16
-6.818024923e-16
-6.839546375e-16
-6.852403274e-16
-3.427071797e-16
-8.185439279e-08
-1.327934616e-07
-3.561075954e-07
-3.551001124e-07
5.904241045e-07
1.605072841e-06
-1.051223768e-06
-6.404363175e-07
-1.943574878e-07
-2.570669011e-17
-5.463013482e-17
-8.378356837e-17
-1.117810004e-16
-1.393630962e-16
-1.666270014e-16
-1.935517653e-16
-2.200886163e-16
-2.46186193e-16
-2.717978863e-16
-2.968808685e-16
-3.213938359e-16
-3.452967406e-16
-3.685516863e-16
-3.911237254e-16
-4.129811448e-16
-4.340956332e-16
-4.544417023e-16
-4.739966869e-16
-4.927404925e-16
-5.106555841e-16
-5.277269545e-16
-5.43942162e-16
-5.592909694e-16
-5.737655072e-16
-5.873598658e-16
-6.000700405e-16
-6.118934736e-16
-6.22829161e-16
-6.328771996e-16
-6.420385553e-16
-6.503150088e-16
-6.577088024e-16
-6.64222585e-16
-6.698590691e-16
-6.746210262e-16
-6.785110008e-16
-6.815312953e-16
-6.836838658e-16
-6.849700477e-16
-3.425605774e-16
1.063464755e-08
-2.113950815e-08
-1.883417647e-07
-1.318264645e-07
4.939285804e-07
1.043528047e-06
-4.533379891e-07
-1.156198686e-06
1.400963692e-07
-2.56931788e-17
-5.455693832e-17
-8.373942418e-17
-1.117261693e-16
-1.392885866e-16
-1.665383128e-16
-1.934477971e-16
-2.199679222e-16
-2.460496462e-16
-2.71647293e-16
-2.967174322e-16
-3.212181585e-16
-3.451091939e-16
-3.683527709e-16
-3.909140922e-16
-4.127616753e-16
-4.338670382e-16
-4.542047461e-16
-4.737520144e-16
-4.924886612e-16
-5.103972084e-16
-5.274626351e-16
-5.43672458e-16
-5.59016528e-16
-5.734869298e-16
-5.870777553e-16
-5.997849004e-16
-6.116058909e-16
-6.225396009e-16
-6.325860578e-16
-6.417462321e-16
-6.500218275e-16
-6.574150764e-16
-6.639285155e-16
-6.695649091e-16
-6.743269242e-16