/*--------------------------------*- C++ -*----------------------------------*\
  =========                 |
  \\      /  F ield         | OpenFOAM: The Open Source CFD Toolbox
   \\    /   O peration     | Website:  https://openfoam.org
    \\  /    A nd           | Version:  6
     \\/     M anipulation  |
\*---------------------------------------------------------------------------*/
FoamFile
{
    version     2.0;
    format      ascii;
    class       volScalarField;
    location    "0.14";
    object      p;
}
// * * * * * * * * * * * * * * * * * * * * * * * * * * * * * * * * * * * * * //

dimensions      [1 -1 -2 0 0 0 0];

internalField   nonuniform List<scalar> 
2500
(
0.5866235791
0.4803223659
0.4506811584
0.3942677381
0.3983861361
0.4392670538
0.4652327126
0.5054506414
27276.52798
27400.0123
27522.11724
27642.11277
27759.03979
27872.04744
27980.41342
28083.55686
28181.0426
28272.5779
28358.003
28437.27731
28510.46296
28577.70715
28639.22451
28695.28051
28746.17636
28792.23589
28833.79438
28871.18948
28904.75403
28934.81049
28961.66694
28985.61429
29006.92451
29025.84966
29042.62162
29057.45219
29070.5337
29082.0397
29092.12587
29100.93107
29108.57832
29115.17585
29120.81807
29125.58646
29129.55044
29132.76811
29135.28687
29137.144
29138.36703
29138.97411
0.3364832667
0.384495826
0.3878929559
0.3724639027
0.3805036244
0.4151870605
0.4436542096
0.4574411538
27276.50294
27401.08537
27524.22733
27645.18079
27762.9586
27876.6885
27985.63536
28089.214
28186.99256
28278.68772
28364.1535
28443.36579
28516.40437
28583.43402
28644.68601
28700.44088
28751.013
28796.7373
28837.95819
28875.02052
28908.26264
28938.01104
28964.57661
28988.25202
29009.31019
29028.00349
29044.56362
29059.2019
29072.10987
29083.46017
29093.4075
29102.08968
29109.62871
29116.13184
29121.69257
29126.39154
29130.29743
29133.4677
29135.9492
29137.77877
29138.98366
29139.58188
0.1451002285
0.3191384849
0.3732948087
0.3884167993
0.3933577918
0.4188369459
0.4390728038
0.4379766213
27276.49883
27403.28094
27528.52644
27651.42402
27770.92482
27886.11211
27996.22504
28100.67079
28199.02562
28291.02673
28376.55742
28455.62806
28528.35493
28594.93889
28655.6451
28710.78455
28760.69809
28805.74287
28846.28135
28882.67263
28915.26586
28944.39538
28970.37743
28993.50802
29014.06177
29032.29155
29048.42857
29062.68302
29075.24484
29086.28475
29095.95543
29104.39259
29111.71616
29118.03141
29123.43
29127.99088
29131.78124
29134.85724
29137.26464
29139.03942
29140.20816
29140.78842
0.001473321883
0.2455274876
0.3439019106
0.4037543813
0.4230085886
0.4338587179
0.4466918967
0.4478323899
27276.51804
27406.68166
27535.17379
27661.06352
27783.20392
27900.60944
28012.4813
28118.218
28217.41199
28309.83586
28395.42127
28474.23411
28546.44853
28612.3218
28672.17132
28726.35464
28775.25253
28819.25538
28858.75241
28894.12356
28925.7336
28953.92804
28979.03059
29001.34174
29021.13826
29038.67329
29054.17706
29067.85775
29079.90267
29090.47957
29099.73789
29107.81009
29114.81294
29120.84868
29126.00615
29130.36177
29133.98046
29136.91641
29139.21376
29140.90715
29142.02219
29142.57577
-0.08671454131
0.1699882029
0.2940172634
0.4023745924
0.439881844
0.4383491644
0.4499417126
0.4572896696
27276.53961
27411.42039
27544.42378
27674.45166
27800.21714
27920.63964
28034.872
28142.30727
28242.56801
28335.48315
28421.05754
28499.43859
28570.88346
28635.72874
28694.36417
28747.21065
28794.70262
28837.27439
28875.35009
28909.33639
28939.61775
28966.55343
28990.47602
29011.69101
29030.47714
29047.08725
29061.74958
29074.66919
29086.02952
29095.99395
29104.70744
29112.29794
29118.87783
29124.54523
29129.38517
29133.47062
29136.86344
29139.6152
29141.76785
29143.35426
29144.39871
29144.91721
-0.11448868
0.09748346977
0.2202599894
0.365786463
0.4282940154
0.4440420496
0.4463023306
0.4635664754
27276.55913
27417.69371
27556.6494
27692.10128
27822.57234
27946.85899
28064.05888
28173.57032
28275.06907
28368.47084
28453.88697
28531.5793
28601.91816
28665.34586
28722.34643
28773.42175
28819.07353
28859.79019
28896.03792
28928.25498
28956.84842
28982.19278
29004.62995
29024.47007
29041.99295
29057.44992
29071.06578
29083.04089
29093.55321
29102.76027
29110.80097
29117.79738
29123.85621
29129.07026
29133.51969
29137.2731
29140.3885
29142.91414
29144.8892
29146.34435
29147.30221
29147.7777
-0.09072046312
0.04642983471
0.1451401874
0.3070199762
0.414324661
0.4504180324
0.4361736543
0.4701158999
27276.58305
27425.78397
27572.37885
27714.73048
27851.1106
27980.16379
28100.93307
28212.84513
28315.66644
28409.44376
28494.44005
28571.07353
28639.86429
28701.39053
28756.25446
28805.05702
28848.38027
28886.77567
28920.75724
28950.79801
28977.32906
29000.74022
29021.38184
29039.56728
29055.57562
29069.65465
29082.02368
29092.87634
29102.38315
29110.6939
29117.9398
29124.2354
29129.68035
29134.36091
29138.35124
29141.71461
29144.50434
29146.76468
29148.53147
29149.83274
29150.68912
29151.11419
-0.04094783764
0.02492318306
0.08875747915
0.2358614245
0.3781018376
0.4377524618
0.4394949675
0.4759749706
27276.6359
27436.09506
27592.35135
27743.32945
27886.97397
28021.75077
28146.66303
28261.20957
28365.30703
28459.19729
28543.35584
28618.41061
28685.07527
28744.09803
28796.22447
28842.17234
28882.61562
28918.17583
28949.41823
28976.85165
29000.93049
29022.0581
29040.59086
29056.84251
29071.08855
29083.57032
29094.4989
29104.0586
29112.41013
29119.69338
29126.0299
29131.52506
29136.2699
29140.34278
29143.81076
29146.73075
29149.15058
29151.10977
29152.64029
29153.76704
29154.50836
29154.87628
-0.006649585857
0.01942032233
0.0517628875
0.1585556346
0.3053626496
0.4022361056
0.4571245945
0.4562578068
27276.72161
27449.20053
27617.60124
27779.25951
27931.70255
28073.20003
28202.75685
28320.02175
28425.15399
28518.6821
28601.37538
28674.13806
28737.92863
28793.70246
28842.37381
28884.79305
28921.73494
28953.89469
28981.88911
29006.2608
29027.48409
29045.97179
29062.08192
29076.12432
29088.36671
29099.04015
29108.34397
29116.45001
29123.50636
29129.64055
29134.96234
29139.56601
29143.53239
29146.93057
29149.81926
29152.24807
29154.25846
29155.88456
29157.15388
29158.0878
29158.70201
29159.00681
-0.002492665474
0.01401795802
0.02534836155
0.08713777963
0.2101453613
0.336337233
0.4343826652
0.3480223942
27276.80596
27465.94304
27649.59148
27824.40122
27987.37317
28136.58692
28271.14029
28390.96501
28496.60417
28589.00143
28669.32564
28738.83804
28798.79941
28850.4102
28894.77618
28932.89207
28965.63736
28993.77989
29017.98374
29038.81933
29056.77428
29072.26401
29085.64168
29097.20712
29107.21477
29115.88057
29123.38778
29129.89207
29135.5257
29140.40112
29144.61389
29148.24524
29151.36409
29154.02882
29156.28864
29158.18481
29159.75163
29161.01715
29162.00388
29162.72927
29163.20608
29163.44267
-0.007781072377
0.007623348932
0.008575638517
0.03517927805
0.124949833
0.2421302946
0.3090537855
0.1350883624
27277.92103
27487.66079
27690.4166
27881.37544
28056.79707
28214.63022
28354.24957
28476.09209
28581.29547
28671.3937
28748.08808
28813.08981
28868.02169
28914.36379
28953.42976
28986.3628
29014.14367
29037.60487
29057.44768
29074.25954
29088.53071
29100.66931
29111.01465
29119.84867
29127.40567
29133.88053
29139.43548
29144.20575
29148.30424
29151.82529
29154.84782
29157.43793
29159.6509
29161.53296
29163.12264
29164.45192
29165.54709
29166.42952
29167.11623
29167.62034
29167.95139
29168.11562
-0.01291232383
-0.00178051725
0.001975647638
0.004168585034
0.0686526551
0.1413410856
0.09620767648
-0.1065993291
27278.23722
27515.70005
27743.03002
27953.87855
28143.80249
28310.88221
28455.1324
28577.85663
28681.09137
28767.19014
28838.54401
28897.41257
28945.83503
28985.59488
29018.21759
29044.98702
29066.97089
29085.04945
29099.9437
29112.24154
29122.42075
29130.86889
29137.89995
29143.76821
29148.67968
29152.80136
29156.2688
29159.19218
29161.66117
29163.74892
29165.51516
29167.00873
29168.26959
29169.33046
29170.21805
29170.95412
29171.55627
29172.0386
29172.41218
29172.68545
29172.86451
29172.95332
-0.01920088979
-0.01224191425
-0.005262306826
-0.01445758335
0.0283735404
0.0490036374
-0.1165300777
-0.189241601
27277.83032
27552.96208
27812.11106
28047.29377
28253.64262
28429.95748
28577.53778
28699.10933
28798.02337
28877.73249
28941.48674
28992.18312
29032.31274
29063.96481
29088.86032
29108.39828
29123.70482
29135.67962
29145.03736
29152.34328
29158.04294
29162.4866
29165.94904
29168.64552
29170.74444
29172.37739
29173.64715
29174.63393
29175.4003
29175.99503
29176.45613
29176.81319
29177.08925
29177.30221
29177.46595
29177.59122
29177.68627
29177.75743
29177.80944
29177.84578
29177.86889
29177.88032
-0.02896066825
-0.02420055337
-0.01760120577
-0.02243780777
-0.01385650949
-0.03956411577
-0.2367202485
0.08793086586
27279.57466
27604.94757
27905.13864
28169.52466
28393.5044
28577.76039
28725.94899
28843.01933
28934.16161
29004.23183
29057.48977
29097.52288
29127.27029
29149.09341
29164.86248
29176.04268
29183.77202
29188.92821
29192.18407
29194.05246
29194.92223
29195.08654
29194.76509
29194.12138
29193.27611
29192.31754
29191.30941
29190.29703
29189.312
29188.3757
29187.50207
29186.6996
29185.97297
29185.32414
29184.7533
29184.2595
29183.84115
29183.49639
29183.22335
29183.02032
29182.88594
29182.81925
-0.04235127003
-0.03759848728
-0.0329964821
-0.03395729315
-0.04740783515
-0.1191473565
-0.231363152
0.7456142499
27283.87184
27680.41645
28033.93904
28332.13556
28573.0752
28761.62441
28905.47748
29012.85934
29091.37519
29147.54717
29186.72124
29213.15165
29230.15505
29240.27859
29245.45569
29247.13979
29246.41398
29244.07858
29240.71952
29236.76142
29232.50805
29228.17327
29223.90438
29219.79972
29215.92201
29212.30818
29208.97682
29205.93371
29203.17588
29200.69464
29198.47777
29196.51113
29194.77983
29193.26903
29191.96456
29190.8533
29189.92342
29189.16462
29188.56822
29188.1272
29187.83629
29187.69197
-0.05885191318
-0.05451875937
-0.05177156572
-0.056856333
-0.05695717366
-0.1573316328
-0.1347854928
1.564665265
27296.2816
27796.70441
28218.01549
28551.96945
28805.02242
28990.18209
29121.48052
29211.57103
29270.93883
29307.86624
29328.70147
29338.21168
29339.92321
29336.41311
29329.54429
29320.64877
29310.66722
29300.25401
29289.85529
29279.76678
29270.17633
29261.1951
29252.88035
29245.25205
29238.30494
29232.01723
29226.35687
29221.286
29216.76408
29212.75012
29209.20416
29206.08824
29203.36711
29201.00854
29198.98358
29197.26666
29195.83556
29194.67143
29193.75867
29193.08494
29192.64104
29192.42086
-0.07786724376
-0.07424338452
-0.07140147787
-0.07953250603
-0.06748675714
-0.1580227908
-0.0437344385
2.15494419
27338.84709
27989.34546
28489.38168
28852.67163
29104.85789
29272.60804
29378.70253
29441.01672
29472.95285
29484.28573
29482.01333
29471.07558
29454.91704
29435.90948
29415.6621
29395.24577
29375.35376
29356.41634
29338.68203
29322.27514
29307.23638
29293.55138
29281.17076
29270.02405
29260.02931
29251.09979
29243.1483
29236.0902
29229.8452
29224.3385
29219.50139
29215.27149
29211.59275
29208.41536
29205.69551
29203.39515
29201.4817
29199.92781
29198.71107
29197.81384
29197.22304
29196.93004
-0.09917617557
-0.09584688228
-0.09411039789
-0.1026349492
-0.0995254035
-0.1370742841
-0.0888752488
2.166053308
27489.03327
28329.07524
28897.44282
29264.47233
29489.14896
29616.71435
29679.72742
29700.8589
29695.58431
29674.32116
29643.99839
29609.16608
29572.76415
29536.64887
29501.95129
29469.32031
29439.08722
29411.37681
29386.18243
29363.41635
29342.94354
29324.60412
29308.22809
29293.64488
29280.68929
29269.20512
29259.04717
29250.08213
29242.18886
29235.25816
29229.19231
29223.90447
29219.31795
29215.36555
29211.98888
29209.13766
29206.76924
29204.848
29203.34492
29202.23726
29201.50821
29201.14669
-0.1219999479
-0.1182147635
-0.1183894258
-0.1226288591
-0.1361592013
-0.1228594493
-0.2681643053
1.482678462
27949.66127
28936.49777
29506.90554
29818.69458
29970.61479
30025.42263
30022.67011
29987.13271
29934.22213
29873.42845
29810.50143
29748.83206
29690.3287
29635.97346
29586.17599
29540.99858
29500.29924
29463.82229
29431.25542
29402.26508
29376.51807
29353.6942
29333.49335
29315.63883
29299.87859
29285.98502
29273.75391
29263.0031
29253.57077
29245.3138
29238.10609
29231.837
29226.40992
29221.74094
29217.7577
29214.39832
29211.61055
29209.35095
29207.58431
29206.28303
29205.42682
29205.00227
-0.1450781954
-0.1408273983
-0.1429008243
-0.1445964247
-0.1704529222
-0.1281716108
-0.3155578226
0.4342554358
29053.55161
29956.12614
30375.2837
30532.9659
30549.30927
30491.76539
30398.44481
30290.80963
30180.76206
30074.68127
29975.75464
29885.33708
29803.74846
29730.74252
29665.78218
29608.19992
29557.28974
29512.35843
29472.75254
29437.87111
29407.17006
29380.16189
29356.41291
29335.53916
29317.20193
29301.10315
29286.98111
29274.60636
29263.77813
29254.32101
29246.08208
29238.92838
29232.74466
29227.43149
29222.90356
29219.08829
29215.92461
29213.36191
29211.35927
29209.8847
29208.9147
29208.43378
-0.167125712
-0.1631636535
-0.1661753372
-0.1693057169
-0.1920325649
-0.1703177991
-0.3026038474
-0.4220878338
31045.36119
31455.71692
31505.64117
31388.84016
31202.03812
30993.96845
30788.58221
30596.92687
30423.3515
30268.78945
30132.50435
30013.01644
29908.58746
29817.46713
29738.01103
29668.72967
29608.30177
29555.5695
29509.52558
29469.29717
29434.1296
29403.37087
29376.45777
29352.90357
29332.28743
29314.24523
29298.46171
29284.66384
29272.61515
29262.11082
29252.97368
29245.05063
29238.20973
29232.33768
29227.33767
29223.1276
29219.6386
29216.81375
29214.60708
29212.98276
29211.91445
29211.38483
-0.1870307864
-0.1841489167
-0.1878866459
-0.1968972587
-0.2168717021
-0.2518792443
-0.3319227106
-0.9846972682
33783.42916
33314.44094
32803.20095
32314.95612
31876.15897
31493.55293
31165.0225
30884.98155
30646.93633
30444.62474
30272.45857
30125.63736
30000.11773
29892.52725
29800.06483
29720.40571
29651.61799
29592.0922
29540.48316
29495.66257
29456.68058
29422.73459
29393.14415
29367.33041
29344.79957
29325.12923
29307.95731
29292.97287
29279.90854
29268.53423
29258.65198
29250.09156
29242.70682
29236.37271
29230.98272
29226.44675
29222.68936
29219.64833
29217.27349
29215.52576
29214.37645
29213.80671
-0.203503873
-0.2020210028
-0.2062904823
-0.2222506928
-0.2367238144
-0.3228984604
-0.2934813049
-1.328888218
36712.44113
35217.5695
34077.95375
33191.72332
32494.13331
31939.07945
31492.97813
31131.03965
30834.78448
30590.31105
30387.06443
30216.95379
30073.71646
29952.45743
29849.3139
29761.20931
29685.67157
29620.69769
29564.65204
29516.18933
29474.19563
29437.743
29406.05416
29378.47479
29354.4517
29333.51539
29315.26608
29299.36248
29285.51261
29273.46635
29263.00927
29253.95761
29246.15411
29239.46449
29233.77464
29228.98822
29225.02467
29221.81765
29219.31371
29217.47128
29216.25981
29215.65929
-0.2151539064
-0.2148106872
-0.2186824105
-0.2391541403
-0.2411128252
-0.3589343472
-0.166456499
-1.423294097
39137.32975
36771.61339
35099.13389
33879.75682
32969.50899
32275.60963
31736.73959
31311.39181
30970.83448
30694.75858
30468.52556
30281.39049
30125.33219
29994.26867
29883.52154
29789.44427
29709.16005
29640.37411
29581.2375
29530.24683
29486.16958
29447.98775
29414.85494
29386.06326
29361.01752
29339.21507
29320.22973
29303.69901
29289.31379
29276.81002
29265.9619
29256.57634
29248.48836
29241.55736
29235.66402
29230.7077
29226.60435
29223.2848
29220.69337
29218.78675
29217.53318
29216.9118
-0.2211238631
-0.2213356677
-0.2244864064
-0.2463134637
-0.2370212668
-0.359374973
-0.02228596083
-1.334607226
40499.31173
37642.03331
35666.73304
34258.40477
33228.37888
32457.01152
31866.91511
31406.91165
31042.37499
30749.34409
30510.87551
30314.74114
30151.94658
30015.75886
29901.056
29803.88384
29721.14861
29650.4001
29589.67632
29537.39053
29492.24795
29453.18352
29419.31481
29389.9061
29364.34048
29342.09816
29322.73935
29305.89067
29291.23421
29278.49878
29267.45276
29257.89828
29249.66645
29242.61344
29236.61727
29231.57511
29227.40114
29224.02476
29221.38914
29219.45012
29218.17528
29217.54338
-0.221123868
-0.2213356727
-0.2244864099
-0.2463134627
-0.2370212566
-0.3593749422
-0.0222859037
-1.334607142
40499.31164
37642.03331
35666.73302
34258.40474
33228.37884
32457.01148
31866.91506
31406.9116
31042.37494
30749.34404
30510.87547
30314.7411
30151.94655
30015.75883
29901.05598
29803.88384
29721.14861
29650.40011
29589.67633
29537.39056
29492.24799
29453.18356
29419.31486
29389.90615
29364.34053
29342.09822
29322.73942
29305.89075
29291.23429
29278.49887
29267.45285
29257.89837
29249.66654
29242.61354
29236.61737
29231.57521
29227.40124
29224.02486
29221.38925
29219.45023
29218.17539
29217.54349
-0.2151539216
-0.2148107035
-0.2186824234
-0.2391541435
-0.2411128026
-0.3589342758
-0.1664563033
-1.42329372
39137.32943
36771.61337
35099.13383
33879.75673
32969.50887
32275.60949
31736.73944
31311.39165
30970.83432
30694.75842
30468.52542
30281.39037
30125.33209
29994.2686
29883.52149
29789.44425
29709.16005
29640.37414
29581.23755
29530.24691
29486.16967
29447.98787
29414.85508
29386.06341
29361.01769
29339.21526
29320.22994
29303.69923
29289.31403
29276.81027
29265.96217
29256.57661
29248.48864
29241.55766
29235.66432
29230.70801
29226.60466
29223.28512
29220.69369
29218.78708
29217.53351
29216.91213
-0.2035038999
-0.2020210336
-0.2062905115
-0.2222507135
-0.236723805
-0.3228983973
-0.2934810314
-1.328887618
36712.44064
35217.56943
34077.95364
33191.72316
32494.13309
31939.0792
31492.97786
31131.03937
30834.78421
30590.31079
30387.0642
30216.95359
30073.7163
29952.45731
29849.31382
29761.20927
29685.67157
29620.69773
29564.65213
29516.18946
29474.19579
29437.7432
29406.05439
29378.47505
29354.45199
29333.51571
29315.26642
29299.36285
29285.51301
29273.46676
29263.0097
29253.95807
29246.15458
29239.46498
29233.77514
29228.98873
29225.02519
29221.81818
29219.31425
29217.47182
29216.26036
29215.65984
-0.1870308268
-0.1841489653
-0.1878866976
-0.1968973099
-0.2168717423
-0.2518792664
-0.33192262
-0.9846970234
33783.42873
33314.44085
32803.2008
32314.95589
31876.15866
31493.55256
31165.0221
30884.98114
30646.93593
30444.62437
30272.45824
30125.63708
30000.1175
29892.52708
29800.06472
29720.40566
29651.618
29592.09226
29540.48328
29495.66275
29456.6808
29422.73487
29393.14447
29367.33078
29344.79998
29325.12968
29307.9578
29292.9734
29279.90909
29268.53482
29258.6526
29250.0922
29242.70748
29236.3734
29230.98342
29226.44747
29222.69009
29219.64907
29217.27424
29215.52652
29214.37721
29213.80748
-0.1671257674
-0.1631637216
-0.1661754128
-0.1693057983
-0.1920326665
-0.1703179533
-0.3026041914
-0.4220884792
31045.3613
31455.71693
31505.64101
31388.83985
31202.03769
30993.96793
30788.58165
30596.92631
30423.35096
30268.78895
30132.50391
30013.01606
29908.58715
29817.46691
29738.01088
29668.7296
29608.30177
29555.56959
29509.52574
29469.2974
29434.1299
29403.37123
29376.45818
29352.90404
29332.28796
29314.24581
29298.46234
29284.66452
29272.61586
29262.11158
29252.97447
29245.05145
29238.21059
29232.33856
29227.33858
29223.12853
29219.63954
29216.81471
29214.60805
29212.98374
29211.91544
29211.38582
-0.1450782678
-0.1408274876
-0.1429009195
-0.1445965121
-0.1704530305
-0.1281717937
-0.3155584133
0.4342544897
29053.55264
29956.12636
30375.28354
30532.96548
30549.30867
30491.76469
30398.44406
30290.80889
30180.76135
30074.68062
29975.75407
29885.33661
29803.74808
29730.74224
29665.782
29608.19983
29557.28975
29512.35853
29472.75274
29437.8714
29407.17042
29380.16233
29356.41342
29335.53975
29317.20258
29301.10387
29286.98188
29274.60719
29263.77901
29254.32194
29246.08306
29238.9294
29232.74571
29227.43257
29222.90467
29219.08943
29215.92577
29213.36309
29211.36046
29209.88591
29208.91591
29208.435
-0.1220000406
-0.118214882
-0.1183895451
-0.1226289223
-0.1361591939
-0.1228593058
-0.2681643281
1.482678416
27949.66216
28936.49793
29506.90524
29818.69395
29970.61396
30025.42168
30022.66914
29987.13176
29934.22123
29873.42765
29810.50073
29748.83148
29690.32824
29635.97312
29586.17577
29540.99848
29500.29926
29463.82242
29431.25566
29402.26542
29376.5185
29353.69473
29333.49397
29315.63953
29299.87937
29285.98587
29273.75484
29263.00409
29253.57182
29245.31491
29238.10724
29231.8382
29226.41117
29221.74223
29217.75902
29214.39967
29211.61193
29209.35235
29207.58572
29206.28446
29205.42825
29205.00372
-0.09917629361
-0.09584705359
-0.09411058586
-0.1026350308
-0.09952524511
-0.1370735434
-0.08887422881
2.166054282
27489.03347
28329.0751
28897.44224
29264.47138
29489.14779
29616.71309
29679.72615
29700.85769
29695.58321
29674.32018
29643.99755
29609.16539
29572.7636
29536.64847
29501.95104
29469.32021
29439.08725
29411.37697
29386.18271
29363.41675
29342.94405
29324.60474
29308.22882
29293.6457
29280.6902
29269.20612
29259.04824
29250.08328
29242.19008
29235.25944
29229.19366
29223.90587
29219.3194
29215.36705
29211.99041
29209.13923
29206.77084
29204.84962
29203.34656
29202.23892
29201.50988
29201.14836
-0.07786738952
-0.07424364789
-0.0714018304
-0.07953279214
-0.06748676875
-0.158022038
-0.04373338003
2.154945889
27338.84712
27989.34514
28489.38073
28852.67024
29104.85627
29272.60636
29378.7009
29441.01521
29472.9515
29484.28456
29482.01233
29471.07478
29454.91641
29435.90903
29415.66182
29395.24565
29375.3538
29356.41653
29338.68237
29322.27561
29307.23697
29293.5521
29281.1716
29270.02499
29260.03036
29251.10093
29243.14953
29236.09151
29229.84659
29224.33997
29219.50293
29215.27309
29211.5944
29208.41706
29205.69726
29203.39694
29201.48353
29199.92966
29198.71294
29197.81573
29197.22494
29196.93194
-0.05885207869
-0.05451915252
-0.05177219758
-0.05685712618
-0.05695787513
-0.1573319478
-0.1347862368
1.564680597
27296.28385
27796.7042
28218.01399
28551.96738
28805.02017
28990.17988
29121.47846
29211.56919
29270.93722
29307.86486
29328.70033
29338.21077
29339.92251
29336.41261
29329.54399
29320.64865
29310.66728
29300.25424
29289.85568
29279.76732
29270.17702
29261.19592
29252.8813
29245.25312
29238.30612
29232.01852
29226.35826
29221.28748
29216.76565
29212.75178
29209.20589
29206.09004
29203.36897
29201.01045
29198.98555
29197.26867
29195.83761
29194.67351
29193.76078
29193.08707
29192.64318
29192.423
-0.04235142847
-0.03759901039
-0.03299747276
-0.03395894236
-0.04740975678
-0.1191485042
-0.2313642239
0.7456303506
27283.87459
27680.41518
28033.93629
28332.1324
28573.0721
28761.62156
28905.47495
29012.85714
29091.37331
29147.5456
29186.71996
29213.15062
29230.15428
29240.27805
29245.45538
29247.13968
29246.41407
29244.07885
29240.71997
29236.76204
29232.50883
29228.1742
29223.90544
29219.80092
29215.92334
29212.30962
29208.97837
29205.93537
29203.17764
29200.69649
29198.4797
29196.51314
29194.7819
29193.27117
29191.96676
29190.85554
29189.9257
29189.16694
29188.57056
29188.12957
29187.83867
29187.69436
-0.02896076906
-0.02420110708
-0.0176024453
-0.02244016873
-0.01385950273
-0.03956537876
-0.2367192983
0.08789571196
27279.56996
27604.9427
27905.13358
28169.51995
28393.50026
28577.75683
28725.94597
28843.01678
28934.15948
29004.23008
29057.48835
29097.52177
29127.26946
29149.09285
29164.86216
29176.04259
29183.77214
29188.92854
29192.18459
29194.05316
29194.92311
29195.08758
29194.76628
29194.12271
29193.27758
29192.31914
29191.31113
29190.29887
29189.31394
29188.37775
29187.5042
29186.70182
29185.97526
29185.3265
29184.75572
29184.26198
29183.84368
29183.49895
29183.22594
29183.02294
29182.88857
29182.82188
-0.0192008686
-0.01224226907
-0.005263361082
-0.01445980638
0.02837071963
0.04900286157
-0.1165280083
-0.1892505206
27277.82899
27552.95366
27812.10314
28047.2873
28253.63741
28429.95326
28577.53432
28699.10649
28798.02103
28877.73059
28941.48523
28992.18195
29032.31187
29063.96423
29088.86001
29108.39822
29123.70499
29135.68001
29145.03795
29152.34408
29158.04393
29162.48775
29165.95036
29168.647
29170.74607
29172.37916
29173.64905
29174.63595
29175.40244
29175.99727
29176.45847
29176.81562
29177.09177
29177.3048
29177.46861
29177.59393
29177.68904
29177.76024
29177.81228
29177.84865
29177.87177
29177.88321
-0.0129121233
-0.001780351681
0.001975419896
0.004167673378
0.06865124544
0.1413408301
0.09620931759
-0.1068876227
27278.19781
27515.68048
27743.01824
27953.87049
28143.7965
28310.87754
28455.12866
28577.85359
28681.0889
28767.18815
28838.54243
28897.41136
28945.83415
28985.59431
29018.2173
29044.987
29066.97112
29085.04991
29099.94439
29112.24243
29122.42185
29130.87018
29137.90141
29143.76984
29148.68147
29152.8033
29156.27088
29159.19439
29161.66351
29163.75138
29165.51772
29167.01138
29168.27234
29169.33328
29170.22095
29170.95708
29171.55929
29172.04167
29172.41528
29172.68858
29172.86766
29172.95647
-0.007780662648
0.007624263337
0.008576746554
0.03518011009
0.1249498174
0.242129962
0.3090538886
0.1348207879
27277.88469
27487.64208
27690.40508
27881.36743
28056.79106
28214.6255
28354.24577
28476.08901
28581.29296
28671.39168
28748.08649
28813.0886
28868.02082
28914.36325
28953.42951
28986.36284
29014.14397
29037.60542
29057.44846
29074.26055
29088.53193
29100.67073
29111.01626
29119.85046
29127.40763
29133.88265
29139.43775
29144.20816
29148.30678
29151.82795
29154.8506
29157.44081
29159.65388
29161.53603
29163.12579
29164.45513
29165.55036
29166.43284
29167.11959
29167.62373
29167.9548
29168.11904
-0.002492069442
0.01401957099
0.02535058556
0.08713960298
0.2101458283
0.3363366022
0.4343816247
0.3480206267
27276.80576
27465.93556
27649.58393
27824.39478
27987.36785
28136.58252
28271.13665
28390.962
28496.60171
28588.99944
28669.32407
28738.83686
28798.79858
28850.4097
28894.776
28932.89218
28965.63775
28993.78054
29017.98463
29038.82045
29056.77563
29072.26558
29085.64344
29097.20907
29107.21691
29115.88287
29123.39024
29129.89468
29135.52846
29140.404
29144.61689
29148.24835
29151.36731
29154.03213
29156.29203
29158.18828
29159.75516
29161.02073
29162.00751
29162.73294
29163.20977
29163.44636
-0.006648910661
0.01942217164
0.05176527264
0.158557328
0.3053629151
0.4022353315
0.457123386
0.4562586818
27276.72184
27449.19705
27617.59644
27779.25465
27931.6981
28073.19612
28202.75349
28320.01891
28425.15163
28518.68018
28601.37387
28674.13693
28737.92787
28793.70204
28842.37371
28884.79324
28921.73542
28953.89545
28981.89012
29006.26205
29027.48558
29045.9735
29062.08384
29076.12645
29088.36902
29099.04265
29108.34663
29116.45283
29123.50933
29129.64366
29134.96558
29139.56937
29143.53586
29146.93413
29149.82291
29152.25181
29154.26226
29155.88843
29157.15779
29158.09174
29158.70598
29159.01079
-0.0409473911
0.02492459511
0.08875918071
0.235862612
0.3781020208
0.4377518978
0.4394941798
0.4759845343
27276.63726
27436.09323
27592.34805
27743.32569
27886.97026
28021.74734
28146.65998
28261.20694
28365.30482
28459.19548
28543.35443
28618.40957
28685.07459
28744.09768
28796.22445
28842.17263
28882.61621
28918.1767
28949.41936
28976.85304
29000.93213
29022.05997
29040.59295
29056.84482
29071.09106
29083.57302
29094.50177
29104.06164
29112.41332
29119.69672
29126.03337
29131.52866
29136.27362
29140.34661
29143.81468
29146.73476
29149.15466
29151.11392
29152.64448
29153.77128
29154.51262
29154.88055
-0.09072049171
0.04643053422
0.1451412295
0.3070210592
0.4143251816
0.4504179672
0.436173423
0.4701143894
27276.58285
27425.78206
27572.37605
27714.7273
27851.10738
27980.16073
28100.9303
28212.8427
28315.66438
28409.44207
28494.43874
28571.07258
28639.8637
28701.39029
28756.25454
28805.05742
28848.38097
28886.77667
28920.75852
28950.79955
28977.33085
29000.74225
29021.38411
29039.56977
29055.57832
29069.65754
29082.02676
29092.8796
29102.38658
29110.69748
29117.94352
29124.23926
29129.68433
29134.365
29138.35543
29141.71889
29144.5087
29146.76911
29148.53596
29149.83727
29150.69368
29151.11877
-0.1144889806
0.09748382422
0.2202608874
0.3657878005
0.4282950281
0.4440424285
0.4463025129
0.463539121
27276.55537
27417.6909
27556.64659
27692.09835
27822.56941
27946.85619
28064.05632
28173.56806
28275.06715
28368.46927
28453.88577
28531.57846
28601.91768
28665.34572
28722.34662
28773.42227
28819.07436
28859.79132
28896.03934
28928.25667
28956.85038
28982.195
29004.63241
29024.47275
29041.99585
29057.45303
29071.06908
29083.04438
29093.55687
29102.76409
29110.80495
29117.8015
29123.86045
29129.07462
29133.52416
29137.27767
29140.39316
29142.91887
29144.89399
29146.34919
29147.30709
29147.78259
-0.0867148872
0.1699884087
0.2940180308
0.402375843
0.4398829187
0.4383497492
0.4499420205
0.4572618399
27276.53579
27411.41764
27544.42106
27674.44886
27800.21436
27920.637
28034.86959
28142.30515
28242.56622
28335.4817
28421.05645
28499.43786
28570.88308
28635.72871
28694.36448
28747.2113
28794.70358
28837.27567
28875.35166
28909.33825
28939.61988
28966.55583
28990.47867
29011.6939
29030.48025
29047.09058
29061.75311
29074.67292
29086.03342
29095.99803
29104.71167
29112.30232
29118.88235
29124.54988
29129.38993
29133.47548
29136.8684
29139.62024
29141.77295
29143.35942
29144.40391
29144.92243
0.00147298143
0.245527158
0.3439019616
0.4037549653
0.4230091589
0.4338591282
0.4466921366
0.4478362541
27276.51855
27406.68001
27535.17129
27661.06076
27783.20118
27900.60686
28012.47897
28118.21597
28217.4103
28309.83452
28395.42029
28474.23349
28546.44827
28612.32189
28672.17176
28726.35542
28775.25364
28819.25681
28858.75415
28894.12559
28925.73591
28953.93062
28979.03344
29001.34484
29021.14159
29038.67685
29054.18083
29067.86171
29079.90683
29090.4839
29099.74238
29107.81474
29114.81773
29120.85361
29126.0112
29130.36693
29133.98572
29136.92176
29139.21918
29140.91264
29142.02773
29142.58132
0.1450996679
0.3191370952
0.3732936935
0.3884164188
0.3933577673
0.4188369831
0.4390728511
0.4379897713
27276.50062
27403.27907
27528.52357
27651.42101
27770.92195
27886.1095
27996.22274
28100.66883
28199.02401
28291.02548
28376.55654
28455.62755
28528.35478
28594.93911
28655.64567
28710.78547
28760.69935
28805.74445
28846.28325
28882.67484
28915.26836
28944.39816
28970.38048
28993.51133
29014.06532
29032.29533
29048.43258
29062.68724
29075.24925
29086.28935
29095.9602
29104.39751
29111.72124
29118.03663
29123.43534
29127.99634
29131.78681
29134.86291
29137.2704
29139.04525
29140.21406
29140.79434
0.3364824573
0.3844934109
0.3878907543
0.3724627183