/*--------------------------------*- C++ -*----------------------------------*\
  =========                 |
  \\      /  F ield         | OpenFOAM: The Open Source CFD Toolbox
   \\    /   O peration     | Website:  https://openfoam.org
    \\  /    A nd           | Version:  6
     \\/     M anipulation  |
\*---------------------------------------------------------------------------*/
FoamFile
{
    version     2.0;
    format      ascii;
    class       surfaceScalarField;
    location    "0.14";
    object      phi;
}
// * * * * * * * * * * * * * * * * * * * * * * * * * * * * * * * * * * * * * //

dimensions      [0 3 -1 0 0 0 0];

internalField   nonuniform List<scalar> 
4900
(
-5.775212349e-08
-1.077242676e-07
5.96420154e-09
-6.371632502e-08
3.000494644e-08
-2.404074489e-08
3.470115525e-08
-4.69620881e-09
2.99299936e-08
4.771161648e-09
1.722116715e-08
1.270882645e-08
1.14207163e-09
1.607909553e-08
-1.092333689e-17
1.142071643e-09
-1.231763576e-20
3.324502801e-24
-1.221031669e-20
-1.073190693e-22
-1.19992913e-20
-2.110276862e-22
-1.169246853e-20
-3.068279326e-22
-1.130056418e-20
-3.919121954e-22
-1.083643354e-20
-4.641411051e-22
-1.031421687e-20
-5.222297206e-22
-9.748483986e-21
-5.657484846e-22
-9.153473878e-21
-5.950282322e-22
-8.542484096e-21
-6.110103926e-22
-7.927432561e-21
-6.150745901e-22
-7.318589521e-21
-6.088684947e-22
-6.724460468e-21
-5.9415686e-22
-6.151791459e-21
-5.726991125e-22
-5.605665208e-21
-5.46158596e-22
-5.089657622e-21
-5.160421102e-22
-4.606028575e-21
-4.836656868e-22
-4.155925945e-21
-4.501413197e-22
-3.739587417e-21
-4.163791966e-22
-3.356529533e-21
-3.831004613e-22
-3.005717589e-21
-3.508563535e-22
-2.685713263e-21
-3.200504934e-22
-2.394799157e-21
-2.909619532e-22
-2.131081085e-21
-2.637675189e-22
-1.8925699e-21
-2.385621522e-22
-1.677245175e-21
-2.153771302e-22
-1.483103274e-21
-1.94195664e-22
-1.308192283e-21
-1.749660284e-22
-1.150636147e-21
-1.576123644e-22
-1.008650085e-21
-1.420433999e-22
-8.805490885e-22
-1.281593602e-22
-7.647510463e-22
-1.158573484e-22
-6.59775755e-22
-1.050354574e-22
-5.642408454e-22
-9.559585273e-23
-4.768554469e-22
-8.744703647e-23
-3.964122248e-22
-8.050547254e-23
-3.21778278e-22
-7.469672806e-23
-2.518852406e-22
-6.995626805e-23
-1.857187912e-22
-6.623004832e-23
-1.223075307e-22
-6.347514704e-23
-6.071051204e-23
-6.166111239e-23
-6.077473251e-23
-1.129601398e-07
-1.546191778e-07
-5.564974577e-08
-1.210267191e-07
-1.465020884e-08
-6.504028182e-08
2.190099276e-09
-2.153651691e-08
5.014386234e-09
1.946874722e-09
2.620560951e-09
1.510265173e-08
-9.614846652e-10
1.966114111e-08
1.641888665e-17
1.805868772e-10
-1.242624342e-20
1.307509623e-25
-1.231399002e-20
-2.195770446e-22
-1.209507747e-20
-4.299498429e-22
-1.177754209e-20
-6.243778466e-22
-1.137278666e-20
-7.966868675e-22
-1.089452e-20
-9.424316197e-22
-1.035773728e-20
-1.059040859e-21
-9.777768431e-21
-1.145750247e-21
-9.169462926e-21
-1.203371088e-21
-8.546556521e-21
-1.23395851e-21
-7.92123528e-21
-1.240441825e-21
-7.303886676e-21
-1.226267284e-21
-6.70301103e-21
-1.195086786e-21
-6.12525847e-21
-1.150509945e-21
-5.575555297e-21
-1.095923927e-21
-5.057286754e-21
-1.034376581e-21
-4.572508755e-21
-9.685132626e-22
-4.122167424e-21
-9.005557528e-22
-3.706311435e-21
-8.323116836e-22
-3.32428744e-21
-7.652042171e-22
-2.974913122e-21
-7.003135593e-22
-2.656625604e-21
-6.384238855e-22
-2.367605195e-21
-5.800710833e-22
-2.105875872e-21
-5.255882636e-22
-1.869384791e-21
-4.751472123e-22
-1.656063448e-21
-4.287948627e-22
-1.463873257e-21
-3.864845078e-22
-1.290838161e-21
-3.481018922e-22
-1.135066682e-21
-3.134865768e-22
-9.947655295e-22
-2.824491047e-22
-8.682465659e-22
-2.547845455e-22
-7.53928665e-22
-2.302829924e-22
-6.503356918e-22
-2.087375472e-22
-5.560916106e-22
-1.899502767e-22
-4.6991351e-22
-1.737365591e-22
-3.906031571e-22
-1.599281806e-22
-3.170375474e-22
-1.483754804e-22
-2.48158806e-22
-1.389487949e-22
-1.829637376e-22
-1.315394014e-22
-1.2049343e-22
-1.26060097e-22
-5.982408673e-23
-1.224453189e-22
-1.206495229e-22
-1.414369909e-07
-1.714017172e-07
-9.493319071e-08
-1.675305192e-07
-4.583071055e-08
-1.14142762e-07
-1.623648251e-08
-5.113074494e-08
-9.123961919e-09
-5.165645844e-09
-5.881858813e-09
1.186054865e-08
-1.126081107e-09
1.490536342e-08
1.205497291e-17
-9.454942341e-10
-1.264483813e-20
-4.905368705e-24
-1.252431429e-20
-3.401046374e-22
-1.228947459e-20
-6.647975403e-22
-1.19498289e-20
-9.640358061e-22
-1.151851856e-20
-1.228013558e-21
-1.101112542e-20
-1.449845137e-21
-1.044445071e-20
-1.625739911e-21
-9.835399537e-21
-1.754829703e-21
-9.200064984e-21
-1.838737789e-21
-8.553057058e-21
-1.881002393e-21
-7.90707899e-21
-1.886459587e-21
-7.27272422e-21
-1.860665408e-21
-6.658451119e-21
-1.809406818e-21
-6.070687689e-21
-1.738323796e-21
-5.514021175e-21
-1.652644255e-21
-4.991434544e-21
-1.55702032e-21
-4.504560284e-21
-1.455447822e-21
-4.053930471e-21
-1.351248946e-21
-3.639209371e-21
-1.247099136e-21
-3.259400704e-21
-1.145082089e-21
-2.913026129e-21
-1.046760076e-21
-2.598274469e-21
-9.532501013e-22
-2.313123236e-21
-8.65299365e-22
-2.055435057e-21
-7.833558564e-22
-1.82303221e-21
-7.076317144e-22
-1.613752524e-21
-6.38158316e-22
-1.425489841e-21
-5.748329424e-22
-1.256221899e-21
-5.174574406e-22
-1.104028186e-21
-4.657696225e-22
-9.670999217e-22
-4.194682992e-22
-8.437439791e-22
-3.782328854e-22
-7.323822309e-22
-3.417384761e-22
-6.315474988e-22
-3.096672243e-22
-5.398770525e-22
-2.817167489e-22
-4.561043837e-22
-2.57606207e-22
-3.790498089e-22
-2.370805599e-22
-3.076103185e-22
-2.199134738e-22
-2.407489767e-22
-2.059092117e-22
-1.774841055e-22
-1.949037937e-22
-1.168784241e-22
-1.867656194e-22
-5.802814091e-23
-1.813956354e-22
-1.787270622e-22
-1.484201059e-07
-1.634227111e-07
-1.235223154e-07
-1.924283098e-07
-7.566773105e-08
-1.619973463e-07
-3.001528704e-08
-9.678318895e-08
-9.996225864e-09
-2.518470702e-08
-6.129270031e-09
7.993592818e-09
-2.056228555e-10
8.981716233e-09
2.093865446e-18
-1.151117104e-09
-1.298276179e-20
-6.733225758e-24
-1.284894879e-20
-4.739213325e-22
-1.258866385e-20
-9.250903327e-22
-1.221377223e-20
-1.338939485e-21
-1.174033118e-20
-1.701470684e-21
-1.118701584e-20
-2.003180529e-21
-1.057354861e-20
-2.239231109e-21
-9.919325295e-21
-2.409080853e-21
-9.242353749e-21
-2.51574099e-21
-8.558542013e-21
-2.56484954e-21
-7.88131373e-21
-2.563726966e-21
-7.221493818e-21
-2.520528026e-21
-6.587394228e-21
-2.443552642e-21
-5.985031402e-21
-2.340736297e-21
-5.418417216e-21
-2.219311463e-21
-4.889878655e-21
-2.085615154e-21
-4.400374784e-21
-1.945011111e-21
-3.949791079e-21
-1.801895109e-21
-3.537200136e-21
-1.659755466e-21
-3.161084278e-21
-1.52126615e-21
-2.819519891e-21
-1.388395364e-21
-2.510325974e-21
-1.262517498e-21
-2.231180789e-21
-1.144520487e-21
-1.979711073e-21
-1.034903844e-21
-1.753558299e-21
-9.338649702e-22
-1.55042616e-21
-8.413730197e-22
-1.368113029e-21
-7.572305965e-22
-1.204532576e-21
-6.811242463e-22
-1.057725261e-21
-6.126649932e-22
-9.25862884e-22
-5.514203073e-22
-8.072479812e-22
-4.969388671e-22
-7.003094676e-22
-4.487693892e-22
-6.035956195e-22
-4.064746652e-22
-5.157652358e-22
-3.696417922e-22
-4.355776052e-22
-3.378894377e-22
-3.618817444e-22
-3.108728355e-22
-2.936052367e-22
-2.882870858e-22
-2.297429008e-22
-2.698692163e-22
-1.69345436e-22
-2.553993669e-22
-1.115081063e-22
-2.447013723e-22
-5.535940038e-23
-2.376429537e-22
-2.341357475e-22
-1.351668612e-07
-1.363812885e-07
-1.363493361e-07
-1.912458349e-07
-1.026636986e-07
-1.956829838e-07
-5.165038411e-08
-1.477965035e-07
-1.158156991e-08
-6.52535212e-08
-2.248016094e-09
-1.339960983e-09
-2.013007004e-10
6.935000838e-09
-5.021211311e-18
-1.352417824e-09
-1.345351328e-20
-8.003702636e-24
-1.330003754e-20
-6.274007712e-22
-1.300244307e-20
-1.222692645e-21
-1.257625592e-20
-1.76513867e-21
-1.204201683e-20
-2.235725837e-21
-1.142306369e-20
-2.622153694e-21
-1.074341338e-20
-2.918905362e-21
-1.002601359e-20
-3.126508447e-21
-9.291498873e-21
-3.250287333e-21
-8.557460188e-21
-3.298923598e-21
-7.838156269e-21
-3.28306994e-21
-7.144558095e-21
-3.214168862e-21
-6.484614034e-21
-3.103542887e-21
-5.863638246e-21
-2.961761706e-21
-5.28474772e-21
-2.798254956e-21
-4.749296589e-21
-2.621122497e-21
-4.257276223e-21
-2.437090831e-21
-3.807664806e-21
-2.251568917e-21
-3.398720662e-21
-2.068764927e-21
-3.028220366e-21
-1.891834575e-21
-2.693646467e-21
-1.723040087e-21
-2.392331463e-21
-1.563905901e-21
-2.121565134e-21
-1.415362671e-21
-1.878672047e-21
-1.277875117e-21
-1.661065363e-21
-1.151552048e-21
-1.466282171e-21
-1.036238686e-21
-1.292004735e-21
-9.315924628e-22
-1.136071161e-21
-8.371440778e-22
-9.964783194e-22
-7.523457937e-22
-8.713791881e-22
-6.766089707e-22
-7.590763179e-22
-6.093327151e-22
-6.580126796e-22
-5.499253242e-22
-5.667608404e-22
-4.978199929e-22
-4.840111578e-22
-4.524860286e-22
-4.085594788e-22
-4.134366095e-22
-3.392946801e-22
-3.802339405e-22
-2.751862681e-22
-3.524924921e-22
-2.152721708e-22
-3.298808708e-22
-1.586467801e-22
-3.121227532e-22
-1.04449246e-22
-2.989972154e-22
-5.185197387e-23
-2.903387233e-22
-2.860370061e-22
-1.058001022e-07
-9.770446729e-08
-1.313489268e-07
-1.656970103e-07
-1.20018923e-07
-2.070129877e-07
-7.680245375e-08
-1.910129727e-07
-2.462206019e-08
-1.174339148e-07
4.057582378e-10
-2.63677794e-08
-5.584755007e-10
7.899234578e-09
-3.184843882e-18
-1.910893357e-09
-1.407694165e-20
-1.130569703e-23
-1.389522035e-20
-8.091257705e-22
-1.354479411e-20
-1.573126731e-21
-1.30467816e-20
-2.263163223e-21
-1.242841709e-20
-2.854106417e-21
-1.171981796e-20
-3.330772851e-21
-1.095104304e-20
-3.687704229e-21
-1.014983584e-20
-3.927743466e-21
-9.340188361e-21
-4.059966444e-21
-8.541663708e-21
-4.097483634e-21
-7.769311777e-21
-4.055460936e-21
-7.033984949e-21
-3.949538363e-21
-6.342879988e-21
-3.794694046e-21
-5.700171987e-21
-3.604519342e-21
-5.10764889e-21
-3.390831031e-21
-4.565291966e-21
-3.163535646e-21
-4.07177535e-21
-2.930666816e-21
-3.624876596e-21
-2.698530076e-21
-3.221801624e-21
-2.47190523e-21
-2.859433502e-21
-2.25427084e-21
-2.534516937e-21
-2.04802749e-21
-2.24379056e-21
-1.854705693e-21
-1.984078126e-21
-1.675150975e-21
-1.752348207e-21
-1.509683237e-21
-1.54575029e-21
-1.358230374e-21
-1.361633603e-21
-1.220437863e-21
-1.197553613e-21
-1.095756898e-21
-1.051269935e-21
-9.835140283e-22
-9.20738493e-22
-8.829652093e-22
-8.040999749e-22
-7.933370355e-22
-6.996660938e-22
-7.138575888e-22
-6.059046956e-22
-6.437790334e-22
-5.214244424e-22
-5.823937487e-22
-4.449595502e-22
-5.290454883e-22
-3.753548826e-22
-4.831367833e-22
-3.115515749e-22
-4.441335674e-22
-2.525732654e-22
-4.115678083e-22
-1.975129488e-22
-3.850387566e-22
-1.455204147e-22
-3.642132938e-22
-9.579020265e-23
-3.488257468e-22
-4.754998145e-23
-3.386774517e-22
-3.336362834e-22
-6.775545389e-08
-5.64308735e-08
-1.106733113e-07
-1.227791529e-07
-1.236997699e-07
-1.93986529e-07
-9.769387061e-08
-2.170188721e-07
-4.713692773e-08
-1.679908576e-07
-6.058155091e-09
-6.744655203e-08
-9.714961555e-10
2.812575639e-09
6.938893904e-18
-2.882389551e-09
-1.488119608e-20
-1.884934024e-23
-1.465907475e-20
-1.031250792e-21
-1.423470507e-20
-1.997504265e-21
-1.363764889e-20
-2.860231457e-21
-1.29050562e-20
-3.586715179e-21
-1.20767635e-20
-4.15908559e-21
-1.119112759e-20
-4.573364091e-21
-1.028212431e-20
-4.836774582e-21
-9.377781325e-21
-4.964341071e-21
-8.499719165e-21
-4.975581191e-21
-7.663464063e-21
-4.89175512e-21
-6.879208567e-21
-4.733836548e-21
-6.152764354e-21
-4.521184473e-21
-5.486533201e-21
-4.270800149e-21
-4.88039367e-21
-3.997023561e-21
-4.332454663e-21
-3.711530899e-21
-3.839662512e-21
-3.423518357e-21
-3.398269146e-21
-3.13998587e-21
-3.00417924e-21
-2.86606049e-21
-2.653197809e-21
-2.605320437e-21
-2.341199371e-21
-2.36009679e-21
-2.064237444e-21
-2.131741059e-21
-1.81861003e-21
-1.920854284e-21
-1.600893575e-21
-1.727477918e-21
-1.407955037e-21
-1.551249346e-21
-1.236949274e-21
-1.391526141e-21
-1.085307024e-21
-1.247483618e-21
-9.507172507e-22
-1.118190101e-21
-8.311064609e-22
-1.002663999e-21
-7.246167901e-22
-8.999162792e-22
-6.295840012e-22
-8.089813963e-22
-5.445161304e-22
-7.289392413e-22
-4.680731954e-22
-6.589302122e-22
-3.990481753e-22
-5.981651018e-22
-3.363493271e-22
-5.459311634e-22
-2.789838124e-22
-5.015954265e-22
-2.260425484e-22
-4.646061038e-22
-1.766861579e-22
-4.344927406e-22
-1.301318745e-22
-4.108656077e-22
-8.564124706e-23
-3.93414717e-22
-4.250848347e-23
-3.819087457e-22
-3.761940756e-22
-2.969298847e-08
-2.242654855e-08
-7.950382613e-08
-7.296831527e-08
-1.138916808e-07
-1.595986744e-07
-1.094821133e-07
-2.214284395e-07
-6.766940308e-08
-2.098035678e-07
-1.745114816e-08
-1.17664807e-07
-8.747171572e-10
-1.376385538e-08
1.63917816e-17
-3.757106732e-09
-1.590460605e-20
-2.813833922e-23
-1.562510592e-20
-1.310754627e-21
-1.509726877e-20
-2.525349269e-21
-1.436404325e-20
-3.59346903e-21
-1.347740665e-20
-4.473367859e-21
-1.249107802e-20
-5.145434267e-21
-1.14546131e-20
-5.609852977e-21
-1.040978829e-20
-5.881627233e-21
-9.389127673e-21
-5.985033351e-21
-8.415997909e-21
-5.948746367e-21
-7.505642249e-21
-5.802149877e-21
-6.666641476e-21
-5.572880027e-21
-5.902451717e-21
-5.285420465e-21
-5.212814988e-21
-4.960486552e-21
-4.594946988e-21
-4.61494458e-21
-4.044477124e-21
-4.262057029e-21
-3.556155663e-21
-3.91189923e-21
-3.124361662e-21
-3.571842321e-21
-2.743450847e-21
-3.247036681e-21
-2.407980925e-21
-2.94085855e-21
-2.11284665e-21
-2.655301952e-21
-1.85335088e-21
-2.391310293e-21
-1.625231855e-21
-2.149049229e-21
-1.424661793e-21
-1.928126233e-21
-1.248227711e-21
-1.727763888e-21
-1.092902095e-21
-1.5469343e-21
-9.56008601e-22
-1.38446161e-21
-8.351862053e-22
-1.239098823e-21
-7.28353915e-22
-1.109584316e-21
-6.336773078e-22
-9.946824871e-22
-5.495375492e-22
-8.932122013e-22
-4.745031561e-22
-8.040659994e-22
-4.07304522e-22
-7.262224026e-22
-3.468110727e-22
-6.587531721e-22
-2.920108318e-22
-6.008269637e-22
-2.419921378e-22
-5.517104922e-22
-1.959272369e-22
-5.107680632e-22
-1.530574753e-22
-4.774601224e-22
-1.126798274e-22
-4.513413123e-22
-7.413450774e-23
-4.320584054e-22
-3.679343034e-23
-4.193483791e-22
-4.130368281e-22
-1.190345676e-09
-3.951822781e-09
-4.47607378e-08
-2.939792317e-08
-9.298532292e-08
-1.113740893e-07
-1.108045971e-07
-2.036091653e-07
-8.39422329e-08
-2.366659321e-07
-3.135698418e-08
-1.702500557e-07
-4.693113145e-11
-4.507390845e-08
1.262417905e-17
-3.804037862e-09
-1.720318854e-20
-3.717582113e-23
-1.683936425e-20
-1.674582623e-21
-1.616517982e-20
-3.199541553e-21
-1.524384398e-20
-4.514816934e-21
-1.414947385e-20
-5.567754074e-21
-1.295557159e-20
-6.339356587e-21
-1.172650859e-20
-6.838939953e-21
-1.051333766e-20
-7.094826012e-21
-9.352987516e-21
-7.14541517e-21
-8.269539538e-21
-7.032229773e-21
-7.276494778e-21
-6.79523375e-21
-6.379285471e-21
-6.470132057e-21
-5.577602127e-21
-6.087150062e-21
-4.867339328e-21
-5.670799042e-21
-4.242109818e-21
-5.240227129e-21
-3.694356186e-21
-4.809866949e-21
-3.216124514e-21
-4.390190336e-21
-2.799572911e-21
-3.988456398e-21
-2.437282694e-21
-3.609392299e-21
-2.12242905e-21
-3.255780409e-21
-1.848855824e-21
-2.928946091e-21
-1.611087859e-21
-2.629151747e-21
-1.404304977e-21
-2.355908058e-21
-1.224294312e-21
-2.108215177e-21
-1.067392247e-21
-1.88474644e-21
-9.30423172e-22
-1.683985946e-21
-8.10639508e-22
-1.5043298e-21
-7.056655226e-22
-1.344159163e-21
-6.134461816e-22
-1.201891713e-21
-5.322014861e-22
-1.076016812e-21
-4.60386241e-22
-9.651185213e-22
-3.966549189e-22
-8.678897149e-22
-3.398311356e-22
-7.831397706e-22
-2.888811985e-22
-7.097977585e-22
-2.428911823e-22
-6.469125673e-22
-2.010470115e-22
-5.936510625e-22
-1.626170696e-22
-5.492950914e-22
-1.269368994e-22
-5.132379401e-22
-9.339560552e-23
-4.8498069e-22
-6.142360953e-23
-4.641287969e-22
-3.048144488e-23
-4.503891263e-22
-4.435676089e-22
1.22941453e-08
9.173981029e-10
-1.380621137e-08
-3.297566513e-09
-6.490810116e-08
-6.027219951e-08
-1.020187539e-07
-1.664985126e-07
-9.478594829e-08
-2.438987376e-07
-4.691412756e-08
-2.181218764e-07
-1.337921043e-09
-9.065011496e-08
-9.852687242e-18
-5.141958868e-09
-1.886140553e-20
-1.59746762e-22
-1.836388495e-20
-2.172106906e-21
-1.748019209e-20
-4.083242277e-21
-1.629668601e-20
-5.698335075e-21
-1.492112269e-20
-6.943333491e-21
-1.34552963e-20
-7.805203037e-21
-1.198258643e-20
-8.311673811e-21
-1.056413427e-20
-8.513306036e-21
-9.240001832e-21
-8.469579296e-21
-8.032721976e-21
-8.23954507e-21
-6.951544179e-21
-7.876450677e-21
-5.99642602e-21
-7.425292957e-21
-5.161346848e-21
-6.922275503e-21
-4.436839585e-21
-6.395356017e-21
-3.811802009e-21
-5.865317765e-21
-3.27471588e-21
-5.347009387e-21
-2.814414223e-21
-4.850551449e-21
-2.420522735e-21
-4.382410381e-21
-2.083677439e-21
-3.94630302e-21
-1.795596052e-21
-3.543930035e-21
-1.54905904e-21
-3.17555404e-21
-1.337839176e-21
-2.840445127e-21
-1.156605467e-21
-2.537217739e-21
-1.000818e-21
-2.264080951e-21
-8.666237368e-22
-2.019021218e-21
-7.507589348e-22
-1.799933345e-21
-6.504609615e-22
-1.604712327e-21
-5.633905215e-22
-1.431315985e-21
-4.875642022e-22
-1.277806116e-21
-4.212966614e-22
-1.14237401e-21
-3.631514827e-22
-1.023354803e-21
-3.11899621e-22
-9.192339985e-22
-2.664843687e-22
-8.286486363e-22
-2.259918422e-22
-7.503849628e-22
-1.896260873e-22
-6.833739381e-22
-1.566880073e-22
-6.266855705e-22
-1.265574241e-22
-5.795227889e-22
-9.867767682e-23
-5.412153627e-22
-7.254224688e-23
-5.112142315e-22
-4.768296876e-23
-4.890864979e-22
-2.365944437e-23
-4.745112605e-22
-4.672764029e-22
1.763709674e-08
1.362744033e-09
7.872307354e-09
6.467222871e-09
-3.420348338e-08
-1.819640877e-08
-8.478090655e-08
-1.159210894e-07
-9.974569551e-08
-2.289339486e-07
-6.344518518e-08
-2.544223867e-07
-7.989932143e-09
-1.461053679e-07
-3.418624975e-17
-1.313189092e-08
-2.090669917e-20
-1.285557578e-22
-2.027416447e-20
-2.804645305e-21
-1.909491392e-20
-5.262500698e-21
-1.754161873e-20
-7.251642323e-21
-1.578313039e-20
-8.701837939e-21
-1.396201947e-20
-9.626334031e-21
-1.218451576e-20
-1.008920152e-20
-1.05207026e-20
-1.017714707e-20
-9.01023373e-21
-9.980079859e-21
-7.669852513e-21
-9.579961742e-21
-6.50056746e-21
-9.045774873e-21
-5.493548358e-21
-8.432354817e-21
-4.634531293e-21
-7.781338855e-21
-3.906875595e-21
-7.123061445e-21
-3.293544254e-21
-6.478702185e-21
-2.778290293e-21
-5.862319678e-21
-2.346291756e-21
-5.282609465e-21
-1.98442389e-21
-4.744340765e-21
-1.68130578e-21
-4.249486578e-21
-1.427216417e-21
-3.798087661e-21
-1.213943207e-21
-3.388898212e-21
-1.03460284e-21
-3.019859035e-21
-8.834586167e-22
-2.688437961e-21
-7.557477446e-22
-2.391870155e-21
-6.47525343e-22
-2.127324161e-21
-5.555277083e-22
-1.892013605e-21
-4.770549313e-22
-1.683269685e-21
-4.098716108e-22
-1.498585716e-21
-3.521237734e-22
-1.335642066e-21
-3.022698837e-22
-1.192317586e-21
-2.590238641e-22
-1.066691955e-21
-2.213081909e-22
-9.570421223e-22
-1.882153508e-22
-8.618351183e-22
-1.589761682e-22
-7.797188518e-22
-1.329337348e-22
-7.095120158e-22
-1.09521875e-22
-6.501938867e-22
-8.824725296e-23
-6.008945534e-22
-6.867438136e-23
-5.608859378e-22
-5.041290901e-23
-5.295738433e-22
-3.31066709e-23
-5.064911867e-22
-1.642405925e-23
-4.912925095e-22
-4.837498257e-22
2.09880081e-08
1.578841649e-09
1.965712978e-08
7.798101209e-09
-5.533501909e-09
6.994222943e-09
-6.106745662e-08
-6.038713469e-08
-9.852224481e-08
-1.914791604e-07
-8.0357608e-08
-2.725870235e-07
-2.126661376e-08
-2.051963621e-07
-3.085910433e-17
-3.439850453e-08
-2.365407416e-20
-1.553844393e-22
-2.27311541e-20
-3.727569066e-21
-2.108370387e-20
-6.9099588e-21
-1.899187971e-20
-9.343478543e-21
-1.670794603e-20
-1.098578772e-20
-1.44253199e-20
-1.190898024e-20
-1.227291047e-20
-1.224163495e-20
-1.032404499e-20
-1.212604044e-20
-8.610460431e-21
-1.169369612e-20
-7.135939798e-21
-1.105451784e-20
-5.887355605e-21
-1.029439823e-20
-4.842684098e-21
-9.477069098e-21
-3.976359817e-21
-8.647709441e-21
-3.262586662e-21
-7.836884349e-21
-2.677205255e-21
-7.064136691e-21
-2.198603952e-21
-6.340977331e-21
-1.808032942e-21
-5.673239973e-21
-1.489569924e-21
-5.062866323e-21
-1.229900648e-21
-4.509221325e-21
-1.018016683e-21
-4.010039913e-21
-8.448913782e-22
-3.562094503e-21
-7.031679486e-22
-3.161656031e-21
-5.868766595e-22
-2.804805274e-21
-4.911878227e-22
-2.487637351e-21
-4.122014464e-22
-2.206391105e-21
-3.467712582e-22
-1.957526445e-21
-2.923593663e-22
-1.737766186e-21
-2.469173565e-22
-1.544114164e-21
-2.087896933e-22
-1.373857869e-21
-1.766356392e-22
-1.224561353e-21
-1.493663676e-22
-1.094052387e-21
-1.260944273e-22
-9.804065414e-22
-1.060931786e-22
-8.819300371e-22
-8.876422923e-23
-7.971425359e-22
-7.361125663e-23
-7.24760661e-22
-6.021890172e-23
-6.63682726e-22
-4.823566672e-23
-6.129749589e-22
-3.735995167e-23
-5.718593842e-22
-2.732852535e-23
-5.397034367e-22
-1.790685393e-23
-5.160113363e-22
-8.880808937e-24
-5.004172192e-22
-4.926800116e-22
2.502421606e-08
2.311561809e-09
2.512390025e-08
7.698417046e-09
1.610504033e-08
1.601308289e-08
-3.240638361e-08
-1.187571071e-08
-8.940206124e-08
-1.344834828e-07
-9.574276974e-08
-2.662463149e-07
-4.047726291e-08
-2.604618688e-07
3.557538378e-18
-7.487576729e-08
-2.738589174e-20
-5.425409099e-22
-2.591273813e-20
-5.200726368e-21
-2.35170113e-20
-9.305693501e-21
-2.063454778e-20
-1.222595414e-20
-1.76317802e-20
-1.398857141e-20
-1.475868527e-20
-1.478209525e-20
-1.215797306e-20
-1.484237118e-20
-9.892250081e-21
-1.439179132e-20
-7.971711588e-21
-1.361426634e-20
-6.376138877e-21
-1.265012604e-20
-5.070252436e-21
-1.160032384e-20
-4.013477335e-21
-1.053388699e-20
-3.165632502e-21
-9.495600595e-21
-2.489896611e-21
-8.512670006e-21
-1.954075106e-21
-7.600011314e-21
-1.530876336e-21
-6.76423247e-21
-1.197656143e-21
-6.006519686e-21
-9.359136203e-22
-5.324671407e-21
-7.307031125e-22
-4.714497325e-21
-5.700526394e-22
-4.170758695e-21
-4.444333189e-22
-3.687784833e-21
-3.462976743e-22
-3.259865265e-21
-2.696899359e-22
-2.881489061e-21
-2.09923881e-22
-2.547481789e-21
-1.633204034e-22
-2.253075177e-21
-1.269960212e-22
-1.993933505e-21
-9.869378416e-23
-1.766153058e-21
-7.664888315e-23
-1.56624553e-21
-5.948231834e-23
-1.3911126e-21
-4.611705166e-23
-1.238016361e-21
-3.571205432e-23
-1.104548572e-21
-2.761052223e-23
-9.886005798e-22
-2.129926117e-23
-8.88334996e-22
-1.637684656e-23
-8.021597127e-22
-1.252865322e-23
-7.287045546e-22
-9.507245191e-24
-6.66800646e-22
-7.116929469e-24
-6.154624727e-22
-5.201525543e-24
-5.738725468e-22
-3.634595809e-24
-5.413685608e-22
-2.31153161e-24
-5.174329057e-22
-1.143002909e-24
-5.016844395e-22
-4.938724047e-22
3.045399609e-08
2.840492043e-09
2.998241021e-08
8.170002945e-09
2.942935398e-08
1.656613916e-08
-1.06181477e-09
1.861545807e-08
-6.909012008e-08
-6.645517745e-08
-1.049917966e-07
-2.303446382e-07
-6.29023334e-08
-3.02551332e-07
2.305962496e-17
-1.377781006e-07
-3.236706111e-20
-1.066886305e-21
-3.001658833e-20
-7.551202846e-21
-2.643740379e-20
-1.288488591e-20
-2.239810462e-20
-1.626526539e-20
-1.842648144e-20
-1.79602107e-20
-1.482007228e-20
-1.83885245e-20
-1.170831245e-20
-1.795415503e-20
-9.115426733e-21
-1.698470495e-20
-7.008076161e-21
-1.572164864e-20
-5.32668196e-21
-1.433155573e-20
-4.004039645e-21
-1.292300534e-20
-2.975327087e-21
-1.156264235e-20
-2.182776586e-21
-1.028819743e-20
-1.577271029e-21
-9.118225346e-21
-1.118302246e-21
-8.059033232e-21
-7.731525841e-22
-7.10943852e-21
-5.157869415e-22
-6.263944867e-21
-3.257133656e-22
-5.514807565e-21
-1.869361445e-22
-4.85334006e-21
-8.705023584e-23
-4.270712935e-21
-1.648620508e-23
-3.758419895e-21
3.210439593e-23
-3.308529479e-21
6.434117195e-23
-2.913801909e-21
8.450440625e-23
-2.567723431e-21
9.5840784e-23
-2.264492173e-21
1.008018649e-22
-1.998977289e-21
1.012292335e-22
-1.766665087e-21
9.849773433e-23
-1.563600521e-21
9.362596075e-23
-1.38632902e-21
8.736128012e-23
-1.231841448e-21
8.024512357e-23
-1.097523629e-21
7.266302135e-23
-9.811110104e-22
6.48828723e-23
-8.806485713e-22
5.708415547e-23
-7.944557848e-22
4.938018247e-23
-7.210963084e-22
4.183501521e-23
-6.593520173e-22
3.447630764e-23
-6.082009896e-22
2.730504828e-23
-5.667990725e-22
2.030296475e-23
-5.344646979e-22
1.343818826e-23
-5.106666607e-22
6.669653864e-24
-4.950146228e-22
-4.872521534e-22
3.635697898e-08
2.997347569e-09
3.548630849e-08
9.040673451e-09
3.667036028e-08
1.538208742e-08
2.693016135e-08
2.835565703e-08
-3.502385802e-08
-4.501157995e-09
-1.009398536e-07
-1.644286425e-07
-8.355853187e-08
-3.199326538e-07
1.596487699e-17
-2.213366326e-07
-3.943626487e-20
-2.254705651e-21
-3.534982548e-20
-1.163764594e-20
-2.981911524e-20
-1.841560402e-20
-2.409513917e-20
-2.198925355e-20
-1.885681297e-20
-2.319855302e-20
-1.438734026e-20
-2.285801731e-20
-1.074006981e-20
-2.160144951e-20
-7.853203576e-21
-1.98715991e-20
-5.618526476e-21
-1.795635748e-20
-3.918465082e-21
-1.603165263e-20
-2.643865532e-21
-1.419764409e-20
-1.700975114e-21
-1.250557558e-20
-1.012836156e-21
-1.097638274e-20
-5.180730887e-22
-9.613038212e-21
-1.686801121e-22
-8.40847936e-21
7.237975036e-23
-7.350554788e-21
2.333937646e-22
-6.425018438e-21
3.357982661e-22
-5.617274667e-21
3.957334975e-22
-4.913340825e-21
4.252824513e-22
-4.300330241e-21
4.33440403e-22
-3.7666489e-21
4.268645296e-22
-3.30202724e-21
4.104486548e-22
-2.897462128e-21
3.877613158e-22
-2.545114522e-21
3.613782342e-22
-2.238189733e-21
3.331338397e-22
-1.970815621e-21
3.043110705e-22
-1.737927002e-21
2.757842803e-22
-1.535160246e-21
2.481266024e-22
-1.358759559e-21
2.216904209e-22
-1.205495059e-21
1.966675165e-22
-1.072591964e-21
1.731338624e-22
-9.576699143e-22
1.510828399e-22
-8.586912984e-22
1.30449722e-22
-7.739174811e-22
1.111295828e-22
-7.018719212e-22
9.299026331e-23
-6.413092617e-22
7.58816323e-23
-5.911896084e-22
5.964207875e-23
-5.506573292e-22
4.41029535e-23
-5.190238183e-22
2.90915082e-23
-4.957537717e-22
1.443275862e-23
-4.804546156e-22
-4.728688091e-22
4.255924348e-08
2.978495928e-09
4.232329127e-08
9.276625678e-09
4.277210193e-08
1.493327679e-08
4.60040935e-08
2.512366551e-08
9.372839586e-09
3.2130096e-08
-7.689018386e-08
-7.816561899e-08
-9.610329475e-08
-3.007195428e-07
-2.762682661e-17
-3.174399276e-07
-4.977432528e-20
-5.75041965e-21
-4.213024511e-20
-1.928172982e-20
-3.339695206e-20
-2.714890495e-20
-2.530850628e-20
-3.007771142e-20
-1.851944537e-20
-2.998763006e-20
-1.313298674e-20
-2.824449605e-20
-9.011659733e-21
-2.572280055e-20
-5.938842407e-21
-2.294444434e-20
-3.694323048e-21
-2.020090859e-20
-2.084713212e-21
-1.764129798e-20
-9.519020128e-22
-1.53304945e-20
-1.717973476e-22
-1.328572308e-20
3.505435498e-22
-1.149877001e-20
6.865464292e-22
-9.949090904e-21
8.893156308e-22
-8.611301729e-21
9.979890397e-22
-7.459284619e-21
1.041207424e-21
-6.468296397e-21
1.039796525e-21
-5.615926387e-21
1.00880204e-21
-4.882411892e-21
9.590151326e-22
-4.250611704e-21
8.981070734e-22
-3.705811913e-21
8.31468833e-22
-3.235462654e-21
7.62830231e-22
-2.828899641e-21
6.947154642e-22
-2.477078207e-21
6.287776707e-22
-2.172332602e-21
5.660442747e-22
-1.908164973e-21
5.070966047e-22
-1.679064039e-21
4.522011155e-22
-1.480351295e-21
4.014049761e-22
-1.30805166e-21
3.546054172e-22
-1.158785315e-21
3.115997532e-22
-1.029677562e-21
2.72121171e-22
-9.182839136e-22
2.358640394e-22
-8.225279401e-22
2.025015083e-22
-7.406497879e-22
1.716974415e-22
-6.711636302e-22
1.431141945e-22
-6.128226022e-22
1.164173542e-22
-5.645900415e-22
9.127826602e-23
-5.256160749e-22
6.737496284e-23
-4.952187843e-22
4.439195192e-23
-4.728693404e-22
2.201920272e-23
-4.58180632e-22
-4.508990314e-22
4.874454914e-08
2.956229711e-09
4.907888675e-08
8.942288085e-09
4.875146711e-08
1.526069645e-08
5.318371059e-08
2.069142208e-08
4.61504809e-08
3.916332572e-08
-3.230144195e-08
2.863038362e-10
-9.486766007e-08
-2.381533246e-07
-4.634286661e-17
-4.123075879e-07
-6.472992359e-20
-1.706885874e-20
-5.000862938e-20
-3.400302774e-20
-3.633534632e-20
-4.082219589e-20
-2.52252543e-20
-4.118781553e-20
-1.678068662e-20
-3.843221389e-20
-1.06139035e-20
-3.441129928e-20
-6.234763011e-21
-3.010196508e-20
-3.196053597e-21
-2.598318169e-20
-1.135037767e-21
-2.226195618e-20
2.26003564e-22
-1.900237484e-20
1.092910121e-21
-1.619744028e-20
1.615258226e-21
-1.380811402e-20
1.90034944e-21
-1.17839076e-20
2.024466114e-21
-1.007325741e-20
2.041456408e-21
-8.628345203e-21
1.989089287e-21
-7.406973934e-21
1.893676231e-21
-6.37294293e-21
1.773396717e-21
-5.495709507e-21
1.640675792e-21
-4.749756536e-21
1.503877669e-21
-4.113881969e-21
1.368509652e-21
-3.570514986e-21
1.238077068e-21
-3.105103744e-21
1.114689992e-21
-2.705588699e-21
9.994935575e-22
-2.361960243e-21
8.929728557e-22
-2.065892583e-21
7.951686003e-22
-1.810443486e-21
7.058292242e-22
-1.58980939e-21
6.245176482e-22
-1.399126277e-21
5.506856944e-22
-1.234307968e-21
4.837253925e-22
-1.09191485e-21
4.230037831e-22
-9.69047236e-22
3.678859434e-22
-8.632586768e-22
3.177496204e-22
-7.72485412e-22
2.719939e-22
-6.94988927e-22
2.300436524e-22
-6.293091801e-22
1.913510044e-22
-5.742265633e-22
1.553947302e-22
-5.287310623e-22
1.216782006e-22
-4.919974007e-22
8.972634209e-23
-4.633652164e-22
5.908192845e-23
-4.423235279e-22
2.930143073e-23
-4.284989211e-22
-4.216470353e-22
5.479490345e-08
2.868878193e-09
5.537260145e-08
8.364590104e-09
5.586239047e-08
1.477090745e-08
5.77264366e-08
1.882737599e-08
6.612650051e-08
3.076326182e-08
2.215394098e-08
4.425886331e-08
-7.646774048e-08
-1.39531643e-07
-2.39811968e-17
-4.887753284e-07
-8.36311523e-20
-4.867045307e-20
-5.685596157e-20
-6.077822219e-20
-3.671764485e-20
-6.096052049e-20
-2.247894612e-20
-5.542652636e-20
-1.276466567e-20
-4.814651047e-20
-6.306969736e-21
-4.086901532e-20
-2.117017927e-21
-3.429194093e-20
5.248496044e-22
-2.862507715e-20
2.124577507e-21
-2.386171585e-20
3.031132725e-21
-1.990896559e-20
3.482488494e-21
-1.664883528e-20
3.639722294e-21
-1.396539068e-20
3.61123863e-21
-1.175547032e-20
3.469589254e-21
-9.931657866e-21
3.263008657e-21
-8.421817799e-21
3.023272995e-21
-7.167294721e-21
2.771037236e-21
-6.120766774e-21
2.519455698e-21
-5.244190617e-21
2.276638214e-21
-4.507004635e-21
2.047317412e-21
-3.88462957e-21
1.833981193e-21
-3.357249874e-21
1.637642162e-21
-2.908838402e-21
1.458360078e-21
-2.526382765e-21
1.295595929e-21
-2.199274583e-21
1.148450971e-21