/*--------------------------------*- C++ -*----------------------------------*\
  =========                 |
  \\      /  F ield         | OpenFOAM: The Open Source CFD Toolbox
   \\    /   O peration     | Website:  https://openfoam.org
    \\  /    A nd           | Version:  6
     \\/     M anipulation  |
\*---------------------------------------------------------------------------*/
FoamFile
{
    version     2.0;
    format      ascii;
    class       volScalarField;
    location    "0.14";
    object      pVap;
}
// * * * * * * * * * * * * * * * * * * * * * * * * * * * * * * * * * * * * * //

dimensions      [1 -1 -2 0 0 0 0];

internalField   nonuniform List<scalar> 
2500
(
55294.34905
55294.0747
55293.69342
55293.37424
55293.12257
55292.92339
55292.75379
55292.62342
1.076200107
1.075478441
1.075013326
1.074715644
1.074528584
1.074413591
1.074344488
1.07430389
1.074280569
1.074267474
1.07426029
1.074256446
1.074254441
1.074253425
1.074252924
1.074252685
1.074252575
1.074252525
1.074252504
1.074252495
1.074252491
1.07425249
1.074252489
1.074252489
1.074252489
1.074252489
1.074252489
1.074252489
1.074252489
1.074252489
1.074252489
1.074252489
1.074252489
1.074252489
1.074252489
1.074252489
1.074252489
1.074252489
1.074252489
1.074252489
1.074252489
1.074252489
55295.97817
55295.69487
55295.19757
55294.5884
55293.98448
55293.47442
55293.02878
55292.62919
1.080121001
1.078014337
1.07661835
1.075711239
1.075133927
1.074774244
1.074554876
1.074423925
1.074347455
1.074303814
1.074279511
1.074266326
1.07425937
1.074255808
1.07425404
1.074253191
1.074252796
1.074252619
1.074252542
1.07425251
1.074252497
1.074252492
1.07425249
1.074252489
1.074252489
1.074252489
1.074252489
1.074252489
1.074252489
1.074252489
1.074252489
1.074252489
1.074252489
1.074252489
1.074252489
1.074252489
1.074252489
1.074252489
1.074252489
1.074252489
1.074252489
1.074252489
55296.77524
55296.55321
55296.11604
55295.47548
55294.70493
55293.9668
55293.29254
55292.63371
1.084417692
1.080904408
1.078528926
1.076953267
1.075926883
1.075270286
1.074858088
1.074604526
1.074452004
1.074362509
1.074311412
1.074283089
1.074267879
1.074259978
1.074256013
1.074254092
1.074253193
1.074252788
1.074252612
1.074252538
1.074252508
1.074252496
1.074252491
1.07425249
1.074252489
1.074252489
1.074252489
1.074252489
1.074252489
1.074252489
1.074252489
1.074252489
1.074252489
1.074252489
1.074252489
1.074252489
1.074252489
1.074252489
1.074252489
1.074252489
1.074252489
1.074252489
55297.2506
55297.08337
55296.73282
55296.16521
55295.36046
55294.45351
55293.56839
55292.64983
1.089658593
1.084616041
1.081128613
1.078745603
1.077137123
1.076066788
1.07536693
1.074919061
1.074639694
1.074470462
1.074371205
1.074314969
1.074284239
1.074268061
1.074259859
1.074255855
1.074253973
1.074253121
1.074252749
1.074252592
1.074252529
1.074252504
1.074252494
1.074252491
1.074252489
1.074252489
1.074252489
1.074252489
1.074252489
1.074252489
1.074252489
1.074252489
1.074252489
1.074252489
1.074252489
1.074252489
1.074252489
1.074252489
1.074252489
1.074252489
1.074252489
1.074252489
55297.58942
55297.46865
55297.19584
55296.71875
55295.96696
55294.94918
55293.85742
55292.67598
1.096791036
1.089993564
1.085128317
1.081655188
1.079193119
1.07747092
1.076290577
1.075503051
1.074994197
1.074676981
1.074486667
1.074376943
1.074316192
1.074283897
1.074267409
1.07425932
1.074255506
1.074253774
1.074253018
1.074252699
1.07425257
1.074252519
1.0742525
1.074252493
1.07425249
1.074252489
1.074252489
1.074252489
1.074252489
1.074252489
1.074252489
1.074252489
1.074252489
1.074252489
1.074252489
1.074252489
1.074252489
1.074252489
1.074252489
1.074252489
1.074252489
1.074252489
55297.86083
55297.7819
55297.57841
55297.18405
55296.50888
55295.46689
55294.1633
55292.70638
1.107581769
1.098625621
1.091869882
1.086750622
1.082899267
1.080056371
1.078017524
1.076606807
1.075669242
1.075072212
1.074708348
1.074496157
1.074377717
1.074314397
1.074281947
1.07426599
1.074258453
1.07425503
1.074253534
1.074252904
1.074252649
1.074252548
1.07425251
1.074252496
1.074252491
1.07425249
1.074252489
1.074252489
1.074252489
1.074252489
1.074252489
1.074252489
1.074252489
1.074252489
1.074252489
1.074252489
1.074252489
1.074252489
1.074252489
1.074252489
1.074252489
1.074252489
55298.09376
55298.05337
55297.91614
55297.60047
55296.99847
55295.97377
55294.48856
55292.74808
1.12537939
1.113510566
1.103869954
1.096020853
1.089740196
1.084872903
1.081252812
1.078681142
1.076939804
1.075816418
1.07512563
1.074720378
1.074493302
1.07437162
1.074309183
1.074278465
1.074263958
1.074257373
1.074254496
1.074253286
1.074252795
1.074252603
1.07425253
1.074252503
1.074252494
1.07425249
1.074252489
1.074252489
1.074252489
1.074252489
1.074252489
1.074252489
1.074252489
1.074252489
1.074252489
1.074252489
1.074252489
1.074252489
1.074252489
1.074252489
1.074252489
1.074252489
55298.30573
55298.29794
55298.22562
55297.99381
55297.47729
55296.49884
55294.884
55292.81465
1.156568882
1.140272688
1.125793087
1.113105594
1.102396929
1.09379204
1.087238688
1.082512159
1.079281084
1.077184435
1.075890788
1.07513052
1.074704229
1.074475808
1.074358665
1.074301084
1.07427392
1.074261604
1.074256231
1.074253973
1.074253058
1.0742527
1.074252565
1.074252515
1.074252498
1.074252492
1.07425249
1.074252489
1.074252489
1.074252489
1.074252489
1.074252489
1.074252489
1.074252489
1.074252489
1.074252489
1.074252489
1.074252489
1.074252489
1.074252489
1.074252489
1.074252489
55298.51427
55298.52719
55298.51365
55298.37106
55297.95651
55297.05828
55295.38265
55292.91403
1.213105396
1.189422471
1.166234619
1.144586016
1.125620866
1.110067878
1.098098768
1.089424433
1.083484255
1.079629372
1.07725285
1.075858027
1.075077175
1.074659493
1.074445673
1.074340761
1.074291355
1.074268994
1.074259255
1.074255169
1.074253515
1.074252869
1.074252625
1.074252536
1.074252505
1.074252494
1.07425249
1.074252489
1.074252489
1.074252489
1.074252489
1.074252489
1.074252489
1.074252489
1.074252489
1.074252489
1.074252489
1.074252489
1.074252489
1.074252489
1.074252489
1.074252489
55298.73572
55298.75494
55298.7851
55298.73167
55298.43317
55297.64752
55295.98144
55293.06924
1.318123579
1.281058825
1.241227861
1.202372646
1.167748766
1.139248029
1.117364035
1.101575309
1.090816777
1.083867721
1.079601592
1.077106964
1.075714979
1.074972578
1.074593537
1.074408011
1.074320836
1.074281462
1.074264347
1.074257178
1.074254282
1.074253153
1.074252727
1.074252572
1.074252517
1.074252498
1.074252492
1.07425249
1.074252489
1.074252489
1.074252489
1.074252489
1.074252489
1.074252489
1.074252489
1.074252489
1.074252489
1.074252489
1.074252489
1.074252489
1.074252489
1.074252489
55298.9733
55298.99634
55299.04707
55299.0747
55298.90286
55298.25993
55296.66682
55295.38236
1.519658556
1.455695695
1.381787445
1.308457887
1.243471286
1.190695661
1.150776803
1.122368748
1.103231909
1.090984074
1.083519152
1.079179016
1.076768477
1.075487797
1.074836084
1.074518011
1.074368937
1.074301759
1.074272619
1.074260437
1.074255524
1.074253611
1.074252891
1.074252628
1.074252536
1.074252504
1.074252494
1.07425249
1.074252489
1.074252489
1.074252489
1.074252489
1.074252489
1.074252489
1.074252489
1.074252489
1.074252489
1.074252489
1.074252489
1.074252489
1.074252489
1.074252489
55299.22536
55299.24893
55299.31155
55299.40181
55299.36389
55298.89542
55297.44323
55296.0008
1.927530277
1.801909162
1.651835797
1.505266738
1.379292043
1.280279222
1.207554121
1.157031554
1.123627909
1.102547364
1.089832243
1.082496925
1.078446959
1.076305314
1.075219621
1.07469144
1.074444577
1.074333604
1.07428557
1.07426553
1.074257462
1.074254325
1.074253145
1.074252717
1.074252565
1.074252514
1.074252497
1.074252491
1.07425249
1.074252489
1.074252489
1.074252489
1.074252489
1.074252489
1.074252489
1.074252489
1.074252489
1.074252489
1.074252489
1.074252489
1.074252489
1.074252489
55299.49252
55299.51778
55299.58891
55299.71651
55299.81618
55299.55795
55298.33328
55294.53785
2.826066595
2.535536298
2.195389262
1.880347935
1.62519895
1.43546699
1.302476204
1.213428105
1.156153969
1.120722627
1.099652244
1.087618714
1.081023158
1.077554447
1.075803514
1.074954657
1.074559074
1.074381696
1.074305089
1.07427319
1.074260371
1.074255395
1.074253527
1.074252848
1.07425261
1.074252528
1.074252501
1.074252493
1.07425249
1.074252489
1.074252489
1.074252489
1.074252489
1.074252489
1.074252489
1.074252489
1.074252489
1.074252489
1.074252489
1.074252489
1.074252489
1.074252489
55299.77364
55299.80143
55299.87842
55300.037
55300.25691
55300.24612
55299.35255
55295.65459
5.066120246
4.2527463
3.372695134
2.62999539
2.0813244
1.705561521
1.459521026
1.303248433
1.206557217
1.148353187
1.114384386
1.095231796
1.084827142
1.079389787
1.076658103
1.075338684
1.074725676
1.07445151
1.074333366
1.074284268
1.074264572
1.074256938
1.074254076
1.074253038
1.074252673
1.074252549
1.074252508
1.074252495
1.074252491
1.074252489
1.074252489
1.074252489
1.074252489
1.074252489
1.074252489
1.074252489
1.074252489
1.074252489
1.074252489
1.074252489
1.074252489
1.074252489
55300.06814
55300.09905
55300.18525
55300.36468
55300.67014
55300.94368
55300.48827
55297.22331
11.59133049
8.815541101
6.182488428
4.232640825
2.9614606
2.182925229
1.718358275
1.443771094
1.282553975
1.188976923
1.135682012
1.106114168
1.090222859
1.08197883
1.077858677
1.07587643
1.074958338
1.074548783
1.074372687
1.074299645
1.074270394
1.074259073
1.074254835
1.0742533
1.074252761
1.074252577
1.074252517
1.074252497
1.074252491
1.07425249
1.074252489
1.074252489
1.074252489
1.074252489
1.074252489
1.074252489
1.074252489
1.074252489
1.074252489
1.074252489
1.074252489
1.074252489
55300.3744
55300.40914
55300.50808
55300.71107
55301.08671
55301.61499
55301.69063
55299.25816
33.75592692
22.59382653
13.61834223
7.933190017
4.74621792
3.046916772
2.145773536
1.660391935
1.394161207
1.246722151
1.165318322
1.12105039
1.097562098
1.08547893
1.079474605
1.076597801
1.075269609
1.074678629
1.074425071
1.074320096
1.074278124
1.074261904
1.074255841
1.074253646
1.074252877
1.074252615
1.074252529
1.074252501
1.074252492
1.07425249
1.074252489
1.074252489
1.074252489
1.074252489
1.074252489
1.074252489
1.074252489
1.074252489
1.074252489
1.074252489
1.074252489
1.074252489
55300.68896
55300.72917
55300.84426
55301.08037
55301.50708
55302.20732
55302.88154
55301.57733
116.2175232
67.80238825
34.87087585
17.05592351
8.540521216
4.65079618
2.854383745
1.989799122
1.553789898
1.325996854
1.204947135
1.140694443
1.107114082
1.090003355
1.081553707
1.077522769
1.075667669
1.074844315
1.074491791
1.074346101
1.07428794
1.074265495
1.074257114
1.074254085
1.074253023
1.074252663
1.074252544
1.074252506
1.074252494
1.07425249
1.074252489
1.074252489
1.074252489
1.074252489
1.074252489
1.074252489
1.074252489
1.074252489
1.074252489
1.074252489
1.074252489
1.074252489
55301.00626
55301.05395
55301.18922
55301.46956
55301.96778
55302.81328
55303.97183
55303.90733
414.4587768
215.0356092
96.47317766
40.15211343
16.82265536
7.67464335
4.028572629
2.482625039
1.775625111
1.430840157
1.255729174
1.165381004
1.118975125
1.095579483
1.084103481
1.078653206
1.076152881
1.075045853
1.074572804
1.074377629
1.074299825
1.074269837
1.074258653
1.074254614
1.0742532
1.07425272
1.074252562
1.074252511
1.074252496
1.074252491
1.074252489
1.074252489
1.074252489
1.074252489
1.074252489
1.074252489
1.074252489
1.074252489
1.074252489
1.074252489
1.074252489
1.074252489
55301.3188
55301.37589
55301.53621
55301.86948
55302.46243
55303.42997
55304.89737
55305.99456
1334.221736
642.732869
263.0059621
96.67510768
34.66618406
13.33035101
5.947194349
3.202071922
2.073413963
1.563775517
1.317820164
1.194902537
1.132971277
1.10210624
1.087072659
1.079965021
1.07671452
1.075278672
1.074666239
1.074413939
1.074313496
1.074274826
1.074260419
1.07425522
1.074253402
1.074252785
1.074252582
1.074252518
1.074252497
1.074252491
1.07425249
1.074252489
1.074252489
1.074252489
1.074252489
1.074252489
1.074252489
1.074252489
1.074252489
1.074252489
1.074252489
1.074252489
55301.61727
55301.68519
55301.8749
55302.26872
55302.97542
55304.10303
55305.76946
55307.69816
3540.767133
1660.507284
651.3944469
221.8138974
70.73067039
23.46110656
8.968310839
4.211569939
2.455509436
1.724070038
1.389767152
1.228292399
1.148576334
1.109321707
1.090338081
1.081402816
1.077328615
1.075532769
1.07476806
1.074453459
1.074328359
1.074280245
1.074262335
1.074255878
1.074253621
1.074252856
1.074252605
1.074252524
1.074252499
1.074252492
1.07425249
1.074252489
1.074252489
1.074252489
1.074252489
1.074252489
1.074252489
1.074252489
1.074252489
1.074252489
1.074252489
1.074252489
55301.89099
55301.97053
55302.19211
55302.65208
55303.48221
55304.80762
55306.66659
55308.98596
7522.823284
3559.796871
1392.720054
458.8093047
135.6662109
40.12392893
13.41156587
5.542963593
2.916555982
1.905582926
1.467951826
1.26368104
1.164874945
1.116793807
1.093702428
1.082879384
1.077957872
1.075792708
1.074872085
1.07449379
1.074343512
1.074285765
1.074264286
1.074256547
1.074253844
1.074252929
1.074252628
1.074252531
1.074252502
1.074252493
1.07425249
1.074252489
1.074252489
1.074252489
1.074252489
1.074252489
1.074252489
1.074252489
1.074252489
1.074252489
1.074252489
1.074252489
55302.12868
55302.21975
55302.47267
55302.9973
55303.94091
55305.43915
55307.43767
55309.91716
12997.04316
6317.966353
2521.338544
827.9219549
235.1608657
64.19653893
19.28813417
7.144353843
3.427457569
2.094935775
1.546337028
1.298312081
1.180601295
1.123945348
1.096907182
1.084281786
1.078554348
1.076038753
1.074970438
1.074531885
1.074357813
1.074290971
1.074266124
1.074257177
1.074254054
1.074252997
1.074252649
1.074252538
1.074252503
1.074252493
1.07425249
1.074252489
1.074252489
1.074252489
1.074252489
1.074252489
1.074252489
1.074252489
1.074252489
1.074252489
1.074252489
1.074252489
55302.31949
55302.42112
55302.70261
55303.28614
55304.3303
55305.96943
55308.07812
55310.55285
18853.01114
9447.017589
3872.855032
1286.482869
359.4619705
93.31112395
25.95897232
8.829610656
3.92916166
2.27134535
1.616840207
1.328797094
1.194272712
1.130118257
1.099662031
1.085484306
1.079064975
1.076249139
1.07505446
1.074564405
1.074370014
1.07429541
1.074267691
1.074257714
1.074254233
1.074253054
1.074252667
1.074252543
1.074252505
1.074252494
1.07425249
1.074252489
1.074252489
1.074252489
1.074252489
1.074252489
1.074252489
1.074252489
1.074252489
1.074252489
1.074252489
1.074252489
55302.4536
55302.56378
55302.86849
55303.50054
55304.62855
55306.37535
55308.57921
55310.94824
23700.97726
12168.12415
5104.711695
1719.873664
478.6637823
120.8281137
32.01116188
10.27799915
4.33846005
2.409514463
1.670555019
1.351631058
1.204412248
1.134670921
1.101687317
1.086366678
1.079439196
1.076403189
1.075115943
1.074588189
1.074378933
1.074298654
1.074268836
1.074258106
1.074254363
1.074253097
1.07425268
1.074252548
1.074252506
1.074252494
1.07425249
1.074252489
1.074252489
1.074252489
1.074252489
1.074252489
1.074252489
1.074252489
1.074252489
1.074252489
1.074252489
1.074252489
55302.52307
55302.63827
55302.95671
55303.61806
55304.7988
55306.61097
55308.89632
55311.14028
26423.83056
13744.67089
5840.80346
1985.525042
552.6880824
137.8324478
35.66862898
11.12557474
4.570383506
2.485816019
1.699699055
1.363885544
1.209819532
1.137090134
1.10276134
1.086834045
1.079637258
1.076484679
1.075148452
1.074600761
1.074383646
1.074300367
1.07426944
1.074258313
1.074254432
1.074253119
1.074252687
1.07425255
1.074252507
1.074252494
1.07425249
1.074252489
1.074252489
1.074252489
1.074252489
1.074252489
1.074252489
1.074252489
1.074252489
1.074252489
1.074252489
1.074252489
55302.52307
55302.63827
55302.95671
55303.61806
55304.7988
55306.61097
55308.89632
55311.14028
26423.83081
13744.67082
5840.803433
1985.525034
552.6880806
137.8324475
35.66862893
11.12557473
4.570383505
2.485816019
1.699699055
1.363885544
1.209819532
1.137090134
1.10276134
1.086834045
1.079637258
1.076484679
1.075148452
1.074600761
1.074383646
1.074300367
1.07426944
1.074258313
1.074254432
1.074253119
1.074252687
1.07425255
1.074252507
1.074252494
1.07425249
1.074252489
1.074252489
1.074252489
1.074252489
1.074252489
1.074252489
1.074252489
1.074252489
1.074252489
1.074252489
1.074252489
55302.4536
55302.56378
55302.86849
55303.50054
55304.62855
55306.37535
55308.57921
55310.94824
23700.97828
12168.12397
5104.711628
1719.873645
478.6637784
120.828113
32.01116179
10.27799914
4.338460048
2.409514463
1.670555019
1.351631058
1.204412248
1.134670921
1.101687317
1.086366678
1.079439196
1.076403189
1.075115943
1.074588189
1.074378933
1.074298654
1.074268836
1.074258106
1.074254363
1.074253097
1.07425268
1.074252548
1.074252506
1.074252494
1.07425249
1.074252489
1.074252489
1.074252489
1.074252489
1.074252489
1.074252489
1.074252489
1.074252489
1.074252489
1.074252489
1.074252489
55302.31949
55302.42112
55302.70261
55303.28614
55304.3303
55305.96943
55308.07812
55310.55285
18853.01257
9447.01738
3872.854963
1286.482852
359.4619674
93.31112351
25.95897227
8.829610655
3.929161662
2.271345351
1.616840207
1.328797094
1.194272712
1.130118257
1.099662031
1.085484306
1.079064975
1.076249139
1.07505446
1.074564405
1.074370014
1.07429541
1.074267691
1.074257714
1.074254233
1.074253054
1.074252667
1.074252543
1.074252505
1.074252494
1.07425249
1.074252489
1.074252489
1.074252489
1.074252489
1.074252489
1.074252489
1.074252489
1.074252489
1.074252489
1.074252489
1.074252489
55302.12868
55302.21975
55302.47267
55302.9973
55303.94091
55305.43915
55307.43767
55309.91716
12997.044
6317.966231
2521.338512
827.9219491
235.1608652
64.19653901
19.28813423
7.144353867
3.427457578
2.094935779
1.54633703
1.298312082
1.180601295
1.123945348
1.096907182
1.084281786
1.078554348
1.076038753
1.074970438
1.074531885
1.074357813
1.074290971
1.074266124
1.074257177
1.074254054
1.074252997
1.074252649
1.074252538
1.074252503
1.074252493
1.07425249
1.074252489
1.074252489
1.074252489
1.074252489
1.074252489
1.074252489
1.074252489
1.074252489
1.074252489
1.074252489
1.074252489
55301.89099
55301.97053
55302.19211
55302.65208
55303.48221
55304.80762
55306.66659
55308.98596
7522.823008
3559.796885
1392.720065
458.8093097
135.6662126
40.12392945
13.41156602
5.54296364
2.916555999
1.905582933
1.467951829
1.263681041
1.164874946
1.116793807
1.093702428
1.082879384
1.077957872
1.075792708
1.074872085
1.07449379
1.074343512
1.074285765
1.074264286
1.074256547
1.074253844
1.074252929
1.074252628
1.074252531
1.074252502
1.074252493
1.07425249
1.074252489
1.074252489
1.074252489
1.074252489
1.074252489
1.074252489
1.074252489
1.074252489
1.074252489
1.074252489
1.074252489
55301.61727
55301.68519
55301.8749
55302.26872
55302.97542
55304.10303
55305.76946
55307.69816
3540.766392
1660.507369
651.394475
221.8139059
70.73067275
23.4611072
8.968311023
4.211569998
2.455509458
1.724070047
1.389767156
1.228292401
1.148576335
1.109321707
1.090338081
1.081402816
1.077328615
1.075532769
1.07476806
1.074453459
1.074328359
1.074280245
1.074262335
1.074255878
1.074253621
1.074252856
1.074252605
1.074252524
1.074252499
1.074252492
1.07425249
1.074252489
1.074252489
1.074252489
1.074252489
1.074252489
1.074252489
1.074252489
1.074252489
1.074252489
1.074252489
1.074252489
55301.3188
55301.37589
55301.53621
55301.86948
55302.46243
55303.42998
55304.89737
55305.99456
1334.221563
642.7329323
263.0059833
96.67511409
34.66618591
13.33035155
5.947194517
3.202071981
2.073413987
1.563775527
1.317820169
1.194902539
1.132971278
1.10210624
1.087072659
1.079965021
1.07671452
1.075278672
1.074666239
1.074413939
1.074313496
1.074274826
1.074260419
1.07425522
1.074253402
1.074252785
1.074252582
1.074252518
1.074252497
1.074252491
1.07425249
1.074252489
1.074252489
1.074252489
1.074252489
1.074252489
1.074252489
1.074252489
1.074252489
1.074252489
1.074252489
1.074252489
55301.00626
55301.05395
55301.18922
55301.46956
55301.96778
55302.81328
55303.97183
55303.90733
414.4588101
215.0356367
96.47318792
40.15211687
16.82265646
7.674643717
4.02857276
2.48262509
1.775625132
1.430840167
1.255729178
1.165381006
1.118975126
1.095579484
1.084103481
1.078653206
1.076152881
1.075045853
1.074572804
1.074377629
1.074299825
1.074269837
1.074258653
1.074254614
1.0742532
1.07425272
1.074252562
1.074252511
1.074252496
1.074252491
1.074252489
1.074252489
1.074252489
1.074252489
1.074252489
1.074252489
1.074252489
1.074252489
1.074252489
1.074252489
1.074252489
1.074252489
55300.68896
55300.72917
55300.84426
55301.08037
55301.50708
55302.20732
55302.88154
55301.57731
116.2175394
67.80239765
34.87087988
17.05592507
8.5405218
4.650796404
2.854383836
1.989799161
1.553789916
1.325996863
1.204947139
1.140694444
1.107114083
1.090003356
1.081553707
1.077522769
1.075667669
1.074844315
1.074491791
1.074346101
1.07428794
1.074265495
1.074257114
1.074254085
1.074253023
1.074252663
1.074252544
1.074252506
1.074252494
1.07425249
1.074252489
1.074252489
1.074252489
1.074252489
1.074252489
1.074252489
1.074252489
1.074252489
1.074252489
1.074252489
1.074252489
1.074252489
55300.3744
55300.40914
55300.50808
55300.71107
55301.08671
55301.61499
55301.69063
55299.26265
33.75593226
22.59382955
13.61834371
7.933190685
4.746218214
3.046916902
2.145773595
1.660391964
1.394161221
1.246722158
1.165318325
1.121050392
1.097562099
1.08547893
1.079474605
1.076597801
1.075269609
1.074678629
1.074425071
1.074320096
1.074278124
1.074261904
1.074255841
1.074253646
1.074252877
1.074252615
1.074252529
1.074252501
1.074252492
1.07425249
1.074252489
1.074252489
1.074252489
1.074252489
1.074252489
1.074252489
1.074252489
1.074252489
1.074252489
1.074252489
1.074252489
1.074252489
55300.06815
55300.09905
55300.18525
55300.36468
55300.67014
55300.94368
55300.48827
55297.22882
11.59133225
8.815542085
6.18248898
4.232641115
2.961460747
2.182925303
1.718358312
1.443771113
1.282553985
1.188976928
1.135682015
1.10611417
1.09022286
1.08197883
1.077858677
1.07587643
1.074958338
1.074548783
1.074372687
1.074299645
1.074270394
1.074259073
1.074254835
1.0742533
1.074252761
1.074252577
1.074252517
1.074252497
1.074252491
1.07425249
1.074252489
1.074252489
1.074252489
1.074252489
1.074252489
1.074252489
1.074252489
1.074252489
1.074252489
1.074252489
1.074252489
1.074252489
55299.77364
55299.80143
55299.87842
55300.037
55300.25691
55300.24612
55299.35256
55295.64529
5.066120879
4.252746658
3.372695359
2.629995522
2.081324475
1.705561562
1.459521049
1.303248446
1.206557224
1.14835319
1.114384388
1.095231797
1.084827142
1.079389787
1.076658103
1.075338684
1.074725676
1.07445151
1.074333366
1.074284268
1.074264572
1.074256938
1.074254076
1.074253038
1.074252673
1.074252549
1.074252508
1.074252495
1.074252491
1.074252489
1.074252489
1.074252489
1.074252489
1.074252489
1.074252489
1.074252489
1.074252489
1.074252489
1.074252489
1.074252489
1.074252489
1.074252489
55299.49253
55299.51779
55299.58891
55299.71652
55299.81618
55299.55796
55298.33328
55294.5353
2.826066898
2.535536454
2.195389365
1.880347999
1.625198989
1.435467013
1.302476217
1.213428112
1.156153973
1.12072263
1.099652245
1.087618715
1.081023158
1.077554447
1.075803514
1.074954657
1.074559074
1.074381696
1.074305089
1.07427319
1.074260371
1.074255395
1.074253527
1.074252848
1.07425261
1.074252528
1.074252501
1.074252493
1.07425249
1.074252489
1.074252489
1.074252489
1.074252489
1.074252489
1.074252489
1.074252489
1.074252489
1.074252489
1.074252489
1.074252489
1.074252489
1.074252489
55299.22537
55299.24894
55299.31155
55299.40182
55299.36389
55298.89543
55297.44323
55295.92234
1.927530467
1.801909245
1.651835848
1.505266769
1.379292062
1.280279234
1.207554128
1.157031559
1.123627912
1.102547365
1.089832244
1.082496926
1.078446959
1.076305314
1.075219621
1.07469144
1.074444577
1.074333604
1.07428557
1.07426553
1.074257462
1.074254325
1.074253145
1.074252717
1.074252565
1.074252514
1.074252497
1.074252491
1.07425249
1.074252489
1.074252489
1.074252489
1.074252489
1.074252489
1.074252489
1.074252489
1.074252489
1.074252489
1.074252489
1.074252489
1.074252489
1.074252489
55298.9733
55298.99634
55299.04707
55299.07471
55298.90286
55298.25994
55296.66682
55295.30999
1.519658646
1.455695736
1.38178747
1.308457902
1.243471295
1.190695667
1.150776806
1.12236875
1.103231911
1.090984075
1.083519152
1.079179016
1.076768477
1.075487797
1.074836084
1.074518011
1.074368937
1.074301759
1.074272619
1.074260437
1.074255524
1.074253611
1.074252891
1.074252628
1.074252536
1.074252504
1.074252494
1.07425249
1.074252489
1.074252489
1.074252489
1.074252489
1.074252489
1.074252489
1.074252489
1.074252489
1.074252489
1.074252489
1.074252489
1.074252489
1.074252489
1.074252489
55298.73573
55298.75495
55298.7851
55298.73167
55298.43318
55297.64753
55295.98144
55293.06882
1.318123607
1.281058844
1.241227872
1.202372652
1.167748769
1.139248031
1.117364037
1.10157531
1.090816778
1.083867722
1.079601592
1.077106965
1.075714979
1.074972578
1.074593537
1.074408011
1.074320836
1.074281462
1.074264347
1.074257178
1.074254282
1.074253153
1.074252727
1.074252572
1.074252517
1.074252498
1.074252492
1.07425249
1.074252489
1.074252489
1.074252489
1.074252489
1.074252489
1.074252489
1.074252489
1.074252489
1.074252489
1.074252489
1.074252489
1.074252489
1.074252489
1.074252489
55298.51428
55298.52719
55298.51365
55298.37106
55297.95652
55297.05828
55295.38265
55292.91448
1.213105407
1.189422477
1.166234622
1.144586018
1.125620867
1.110067879
1.098098768
1.089424433
1.083484256
1.079629372
1.07725285
1.075858027
1.075077175
1.074659493
1.074445673
1.074340761
1.074291355
1.074268994
1.074259255
1.074255169
1.074253515
1.074252869
1.074252625
1.074252536
1.074252505
1.074252494
1.07425249
1.074252489
1.074252489
1.074252489
1.074252489
1.074252489
1.074252489
1.074252489
1.074252489
1.074252489
1.074252489
1.074252489
1.074252489
1.074252489
1.074252489
1.074252489
55298.30573
55298.29794
55298.22562
55297.99381
55297.47729
55296.49884
55294.884
55292.81738
1.156568887
1.140272688
1.125793086
1.113105593
1.102396929
1.09379204
1.087238688
1.082512159
1.079281084
1.077184435
1.075890788
1.07513052
1.074704229
1.074475808
1.074358665
1.074301084
1.07427392
1.074261604
1.074256231
1.074253973
1.074253058
1.0742527
1.074252565
1.074252515
1.074252498
1.074252492
1.07425249
1.074252489
1.074252489
1.074252489
1.074252489
1.074252489
1.074252489
1.074252489
1.074252489
1.074252489
1.074252489
1.074252489
1.074252489
1.074252489
1.074252489
1.074252489
55298.09377
55298.05338
55297.91615
55297.60047
55296.99847
55295.97377
55294.48856
55292.74768
1.125379386
1.113510564
1.103869951
1.096020851
1.089740195
1.084872902
1.081252812
1.078681142
1.076939804
1.075816418
1.07512563
1.074720378
1.074493302
1.07437162
1.074309183
1.074278465
1.074263958
1.074257373
1.074254496
1.074253286
1.074252795
1.074252603
1.07425253
1.074252503
1.074252494
1.07425249
1.074252489
1.074252489
1.074252489
1.074252489
1.074252489
1.074252489
1.074252489
1.074252489
1.074252489
1.074252489
1.074252489
1.074252489
1.074252489
1.074252489
1.074252489
1.074252489
55297.86083
55297.7819
55297.57841
55297.18405
55296.50888
55295.46689
55294.1633
55292.69888
1.107581756
1.098625618
1.091869879
1.08675062
1.082899266
1.08005637
1.078017523
1.076606807
1.075669242
1.075072212
1.074708348
1.074496157
1.074377717
1.074314397
1.074281947
1.07426599
1.074258453
1.07425503
1.074253534
1.074252904
1.074252649
1.074252548
1.07425251
1.074252496
1.074252491
1.07425249
1.074252489
1.074252489
1.074252489
1.074252489
1.074252489
1.074252489
1.074252489
1.074252489
1.074252489
1.074252489
1.074252489
1.074252489
1.074252489
1.074252489
1.074252489
1.074252489
55297.58942
55297.46865
55297.19584
55296.71875
55295.96696
55294.94918
55293.85742
55292.66835
1.096791023
1.089993561
1.085128314
1.081655186
1.079193117
1.077470919
1.076290576
1.075503051
1.074994197
1.074676981
1.074486667
1.074376943
1.074316192
1.074283897
1.074267409
1.07425932
1.074255506
1.074253774
1.074253018
1.074252699
1.07425257
1.074252519
1.0742525
1.074252493
1.07425249
1.074252489
1.074252489
1.074252489
1.074252489
1.074252489
1.074252489
1.074252489
1.074252489
1.074252489
1.074252489
1.074252489
1.074252489
1.074252489
1.074252489
1.074252489
1.074252489
1.074252489
55297.2506
55297.08337
55296.73282
55296.1652
55295.36046
55294.45351
55293.56839
55292.65086
1.08965859
1.084616038
1.081128611
1.078745601
1.077137122
1.076066787
1.07536693
1.074919061
1.074639694
1.074470462
1.074371205
1.074314969
1.074284239
1.074268061
1.074259859
1.074255855
1.074253973
1.074253121
1.074252749
1.074252592
1.074252529
1.074252504
1.074252494
1.074252491
1.074252489
1.074252489
1.074252489
1.074252489
1.074252489
1.074252489
1.074252489
1.074252489
1.074252489
1.074252489
1.074252489
1.074252489
1.074252489
1.074252489
1.074252489
1.074252489
1.074252489
1.074252489
55296.77524
55296.55321
55296.11604
55295.47548
55294.70493
55293.9668
55293.29253
55292.63729
1.084417691
1.080904405
1.078528924
1.076953265
1.075926882
1.075270286
1.074858088
1.074604525
1.074452004
1.074362509
1.074311412
1.074283089
1.074267879
1.074259978
1.074256013
1.074254092
1.074253193
1.074252788
1.074252612
1.074252538
1.074252508
1.074252496
1.074252491
1.07425249
1.074252489
1.074252489
1.074252489
1.074252489
1.074252489
1.074252489
1.074252489
1.074252489
1.074252489
1.074252489
1.074252489
1.074252489
1.074252489
1.074252489
1.074252489
1.074252489
1.074252489
1.074252489
55295.97817
55295.69487
55295.19757
55294.5884
55293.98448
55293.47442
55293.02878
55292.61805
1.080120993
1.078014335
1.076618349
1.075711238
1.075133927
1.074774244
1.074554876
1.074423925
1.074347455
1.074303814
1.074279511
1.074266326
1.07425937
1.074255808
1.07425404
1.074253191
1.074252796
1.074252619
1.074252542
1.07425251
1.074252497
1.074252492
1.07425249
1.074252489
1.074252489
1.074252489
1.074252489
1.074252489
1.074252489
1.074252489
1.074252489
1.074252489
1.074252489
1.074252489
1.074252489
1.074252489
1.074252489
1.074252489
1.074252489
1.074252489
1.074252489
1.074252489
55294.34905
55294.0747
55293.69342
55293.37424
55293.12257
55292.92339
55292.75379
55292.59856
1.076200066
1.07547844
1.075013326