/*--------------------------------*- C++ -*----------------------------------*\
  =========                 |
  \\      /  F ield         | OpenFOAM: The Open Source CFD Toolbox
   \\    /   O peration     | Website:  https://openfoam.org
    \\  /    A nd           | Version:  6
     \\/     M anipulation  |
\*---------------------------------------------------------------------------*/
FoamFile
{
    version     2.0;
    format      ascii;
    class       volScalarField;
    location    "0.14";
    object      Temperature;
}
// * * * * * * * * * * * * * * * * * * * * * * * * * * * * * * * * * * * * * //

dimensions      [0 0 0 1 0 0 0];

internalField   nonuniform List<scalar> 
2500
(
325.8399848
321.5182083
315.698667
310.9863355
307.3682632
304.5640459
302.2162273
300.0977042
300.0452041
300.0284654
300.0176709
300.0107595
300.0064152
300.003744
300.0021384
300.0011949
300.0006529
300.0003485
300.0001814
300.000092
300.0000454
300.0000218
300.0000101
300.0000046
300.000002
300.0000008
300.0000003
300.0000001
300.0000001
300
300
300
300
300
300
300
300
300
300
300
300
300
300
300
300
300
300
300
300
300
354.1068083
348.8452445
339.9772559
329.7093921
320.1231748
312.4503935
306.0415458
300.2783114
300.1360055
300.0872617
300.054915
300.0338754
300.020476
300.0121238
300.007028
300.0039852
300.0022079
300.0011935
300.0006284
300.0003218
300.0001601
300.0000772
300.0000361
300.0000163
300.0000072
300.000003
300.0000012
300.0000005
300.0000002
300.0000001
300
300
300
300
300
300
300
300
300
300
300
300
300
300
300
300
300
300
300
300
369.8023893
365.2934114
356.7285235
344.8790868
331.626366
319.8513711
309.8027887
300.4662234
300.2351983
300.1541322
300.099191
300.0626892
300.0388854
300.0236458
300.0140735
300.0081828
300.0046384
300.0025582
300.0013703
300.0007117
300.000358
300.0001742
300.000082
300.0000373
300.0000164
300.000007
300.0000029
300.0000011
300.0000004
300.0000002
300.0000001
300
300
300
300
300
300
300
300
300
300
300
300
300
300
300
300
300
300
300
379.843037
376.2504817
368.9349649
357.6734102
342.8349051
327.5197289
313.8367172
300.6815199
300.3557527
300.2397983
300.1593345
300.1042223
300.0669612
300.0421377
300.0258932
300.0154917
300.009001
300.0050679
300.0027606
300.0014531
300.0007385
300.0003622
300.0001715
300.0000783
300.0000345
300.0000147
300.0000061
300.0000024
300.0000009
300.0000003
300.0000001
300
300
300
300
300
300
300
300
300
300
300
300
300
300
300
300
300
300
300
387.3388022
384.6341187
378.6609437
368.648069
353.9005004
335.7160887
318.1773677
300.9463404
300.5190517
300.3634865
300.2516347
300.1715232
300.1145966
300.0747078
300.0473354
300.0290565
300.0172385
300.0098681
300.0054449
300.0028941
300.0014816
300.0007306
300.0003471
300.0001589
300.0000702
300.0000299
300.0000123
300.0000049
300.0000019
300.0000007
300.0000003
300.0000001
300
300
300
300
300
300
300
300
300
300
300
300
300
300
300
300
300
300
393.5594967
391.7305544
387.0920186
378.4072072
364.4084979
344.7254956
322.903341
301.3013791
300.7644409
300.5609751
300.4065673
300.289019
300.2002703
300.1345843
300.0873826
300.054676
300.0329172
300.0190519
300.0105976
300.0056657
300.0029122
300.0014399
300.0006852
300.0003141
300.0001388
300.0000591
300.0000243
300.0000097
300.0000037
300.0000014
300.0000005
300.0000002
300.0000001
300
300
300
300
300
300
300
300
300
300
300
300
300
300
300
300
300
399.0600234
398.0957121
394.8531278
387.5897462
374.4527941
354.0269516
328.0849974
301.8206698
301.164853
300.8984972
300.6803782
300.5015994
300.3577613
300.2458059
300.1622589
300.1027612
300.0624031
300.0363357
300.0202936
300.0108775
300.0055995
300.0027705
300.0013187
300.0006043
300.0002668
300.0001136
300.0000467
300.0000186
300.0000071
300.0000026
300.000001
300.0000003
300.0000001
300
300
300
300
300
300
300
300
300
300
300
300
300
300
300
300
300
404.2006293
404.0096785
402.243138
396.6822863
384.8271473
364.2068827
334.6135662
302.6565579
301.8539877
301.4959721
301.1742419
300.8894613
300.6469655
300.4506678
300.3002937
300.1913598
300.1166575
300.0680789
300.0380635
300.0204078
300.0105025
300.005193
300.0024694
300.0011304
300.0004986
300.0002121
300.0000871
300.0000345
300.0000132
300.0000049
300.0000018
300.0000006
300.0000002
300.0000001
300
300
300
300
300
300
300
300
300
300
300
300
300
300
300
300
409.3895788
409.7154102
409.3742872
405.8132854
395.8022885
375.7182106
343.2262484
304.0551067
303.0646057
302.563428
302.064572
301.5912873
301.1704745
300.8209188
300.5491026
300.3505479
300.2138052
300.1247235
300.0696676
300.037304
300.019169
300.009463
300.0044925
300.0020531
300.0009041
300.000384
300.0001574
300.0000624
300.0000239
300.0000089
300.0000032
300.0000011
300.0000004
300.0000001
300
300
300
300
300
300
300
300
300
300
300
300
300
300
300
300
415.0475145
415.5457823
416.330336
414.9431776
407.3578376
388.6564227
354.1726852
306.4143969
305.1938262
304.4591257
303.649569
302.8387034
302.0975133
301.4735054
300.9854486
300.6283327
300.3825211
300.2226587
300.1240841
300.0662863
300.0339836
300.0167392
300.0079301
300.0036169
300.0015898
300.000674
300.0002759
300.0001091
300.0000417
300.0000155
300.0000055
300.0000019
300.0000006
300.0000002
300.0000001
300
300
300
300
300
300
300
300
300
300
300
300
300
300
300
421.2936562
421.909355
423.2715571
424.0177531
419.4235942
403.0821632
367.5905472
310.4090074
308.9127254
307.77936
306.4170566
305.0041946
303.6959035
302.5908505
301.7275367
301.0978008
300.6660238
300.3863702
300.2146229
300.1143046
300.0584362
300.0287085
300.0135677
300.0061745
300.0027084
300.0011461
300.0004683
300.0001849
300.0000706
300.0000261
300.0000094
300.0000032
300.0000011
300.0000004
300.0000001
300
300
300
300
300
300
300
300
300
300
300
300
300
300
300
428.1295608
428.779903
430.5178512
433.0482867
431.9825752
419.2284058
384.073139
317.1882018
315.3332926
313.486614
311.1353867
308.661622
306.370259
304.443862
302.948302
301.8644975
301.1260258
300.65048
300.3599438
300.1910306
300.0973517
300.0476898
300.0224798
300.0102062
300.0044673
300.0018868
300.0007696
300.0003034
300.0001157
300.0000427
300.0000153
300.0000053
300.0000018
300.0000006
300.0000002
300.0000001
300
300
300
300
300
300
300
300
300
300
300
300
300
300
435.6211169
436.3427703
438.3879756
442.1065111
445.0558938
437.4983258
404.884158
328.6581696
326.245711
323.0763888
318.9618018
314.6522626
310.7000863
307.4128539
304.8863785
303.0719279
301.8453733
301.0609592
300.5845897
300.3090805
300.1569794
300.0766676
300.0360415
300.0163237
300.0071293
300.0030052
300.0012236
300.0004816
300.0001834
300.0000676
300.0000242
300.0000084
300.0000028
300.0000009
300.0000003
300.0000001
300
300
300
300
300
300
300
300
300
300
300
300
300
300
443.7923096
444.6165941
446.916231
451.7291624
458.579073
458.2400976
431.6686644
347.8441938
344.4259072
338.7661952
331.5482859
324.1389335
317.4647102
311.9974658
307.8490858
304.9017789
302.9274348
301.6744512
300.9184754
300.483689
300.2448042
300.1191916
300.0558785
300.0252464
300.0110023
300.0046286
300.0018813
300.0007393
300.0002812
300.0001035
300.0000369
300.0000128
300.0000043
300.0000014
300.0000004
300.0000001
300
300
300
300
300
300
300
300
300
300
300
300
300
300
452.6879616
453.6420295
456.3243603
462.0113039
472.0263184
481.3724922
466.0174825
379.2596447
373.9750705
363.6574479
351.1021742
338.616693
327.6339274
318.8023858
312.1996132
307.5644342
304.4898267
302.5544417
301.3946947
300.73152
300.3689333
300.1790733
300.0837232
300.0377357
300.0164097
300.0068903
300.0027957
300.001097
300.0004166
300.0001532
300.0000546
300.0000189
300.0000063
300.0000021
300.0000007
300.0000002
300.0000001
300
300
300
300
300
300
300
300
300
300
300
300
300
462.3245787
463.443532
466.6602898
473.4020725
486.4057228
505.9515673
508.8841627
429.0451728
420.5688671
401.7691009
380.3301342
359.834333
342.2969275
328.48324
318.3198715
311.2753013
306.6502041
303.7631586
302.0451134
301.0683702
300.5369467
300.2598336
300.1211587
300.0544808
300.0236424
300.0099089
300.0040139
300.0015727
300.0005964
300.0002191
300.000078
300.0000269
300.000009
300.0000029
300.0000009
300.0000003
300.0000001
300
300
300
300
300
300
300
300
300
300
300
300
300
472.6592829
474.0132862
477.9329123
486.1807059
501.8318142
529.8216498
559.893211
504.515888
491.3732068
457.7836222
422.1710483
389.5746675
362.5025593
341.639464
326.5429034
316.2142819
309.5030293
305.3487972
302.8936146
301.5057304
300.7542103
300.3639039
300.1692538
300.0759374
300.0328888
300.0137601
300.0055653
300.0021775
300.0008248
300.0003026
300.0001076
300.0000371
300.0000124
300.000004
300.0000013
300.0000004
300.0000001
300
300
300
300
300
300
300
300
300
300
300
300
300
483.5623726
485.2444905
490.0803579
500.4160153
519.902132
556.6896655
616.4617535
612.8088057
594.2634628
536.3139869
479.2274144
429.2559077
388.9979891
358.6515075
337.0557469
322.4700123
313.088704
307.3290209
303.9475777
302.046531
301.0218214
300.4916666
300.2281295
300.1021385
300.0441553
300.0184439
300.0074489
300.0029107
300.0011012
300.0004036
300.0001434
300.0000495
300.0000165
300.0000054
300.0000017
300.0000005
300.0000002
300
300
300
300
300
300
300
300
300
300
300
300
300
494.8049461
496.9149413
502.9380566
515.9382406
540.8101751
586.9827221
674.2918275
758.6760788
735.954839
640.5491757
552.8641205
479.3636535
421.8849188
379.4797233
349.7853699
329.9770585
317.359989
309.673528
305.1890931
302.6808472
301.3345728
300.6405194
300.2965421
300.132514
300.0571907
300.0238536
300.0096211
300.0037552
300.0014192
300.0005197
300.0001845
300.0000636
300.0000213
300.0000069
300.0000022
300.0000007
300.0000002
300.0000001
300
300
300
300
300
300
300
300
300
300
300
300
506.0404085
508.668439
516.1559635
532.4250725
564.3462693
624.0437463
739.6738094
941.6012841
918.8419329
770.3302261
642.0800783
538.8070229
460.2607657
403.4687834
364.2943672
338.4615162
322.1542771
312.290254
306.5682668
303.3827328
301.679495
300.8042223
300.3715989
300.1657703
300.0714368
300.0297563
300.011988
300.0046741
300.0017649
300.0006458
300.0002291
300.0000789
300.0000264
300.0000086
300.0000027
300.0000008
300.0000002
300.0000001
300
300
300
300
300
300
300
300
300
300
300
300
516.801789
520.0149072
529.180929
549.2789034
589.6992028
668.2084244
821.627162
1151.465206
1137.006805
920.1060893
742.4648751
604.395558
501.9623645
429.2252808
379.7241201
347.4154098
327.1824445
315.0206968
308.001341
304.1095015
302.0355971
300.9728113
300.4487319
300.1998844
300.0860272
300.0357935
300.0144059
300.0056119
300.0021173
300.0007742
300.0002745
300.0000944
300.0000315
300.0000102
300.0000032
300.000001
300.0000003
300.0000001
300
300
300
300
300
300
300
300
300
300
300
300
526.5251398
530.3476204
541.2613652
565.3959374
614.6934822
713.4656773
908.1027771
1372.686257
1373.649728
1077.749005
845.7404658
670.7033007
543.5539363
454.6428984
394.8237903
356.11933
332.0439426
317.6490656
309.3758717
304.8044966
302.3752788
301.1332868
300.522021
300.2322484
300.0998507
300.0415067
300.0166918
300.0064977
300.00245
300.0008953
300.0003173
300.0001091
300.0000364
300.0000118
300.0000037
300.0000011
300.0000003
300.0000001
300
300
300
300
300
300
300
300
300
300
300
300
534.5991171
539.001498
551.5813115
579.6252615
637.6355023
756.4869355
995.0937691
1579.89203
1600.208553
1224.917276
940.3236425
730.5463896
580.6686597
477.1259647
408.0881252
363.7234407
336.2724827
319.9270767
310.5637019
305.4036421
302.667524
301.271118
300.5848779
300.2599715
300.1116794
300.046391
300.0186444
300.0072538
300.0027337
300.0009985
300.0003537
300.0001216
300.0000406
300.0000132
300.0000042
300.0000013
300.0000004
300.0000001
300
300
300
300
300
300
300
300
300
300
300
300
540.4240194
545.3048978
559.2736655
590.6594633
656.3998035
793.0932805
1075.716818
1743.595417
1780.928636
1340.048432
1013.236428
776.1656645
608.7204676
494.0067506
417.9958295
369.3800754
339.4077868
321.611681
311.440219
305.8449756
302.8824752
301.3723693
300.6310043
300.2802974
300.1203452
300.0499668
300.0200731
300.0078068
300.0029411
300.001074
300.0003804
300.0001307
300.0000436
300.0000141
300.0000045
300.0000014
300.0000004
300.0000001
300
300
300
300
300
300
300
300
300
300
300
300
543.4915777
548.655108
563.4528522
596.8875844
667.6145384
816.0144974
1133.852966
1835.994861
1881.929407
1403.544111
1053.063864
800.9073072
623.8525234
503.0751753
423.3011864
372.4014169
341.0790529
322.5081982
311.9060699
306.0792804
302.9964902
301.4260347
300.6554366
300.2910577
300.1249307
300.0518582
300.0208285
300.0080991
300.0030507
300.0011139
300.0003944
300.0001355
300.0000452
300.0000147
300.0000046
300.0000014
300.0000004
300.0000001
300
300
300
300
300
300
300
300
300
300
300
300
543.4915791
548.6551093
563.4528535
596.8875859
667.6145401
816.0144994
1133.852969
1835.994858
1881.929405
1403.544109
1053.063863
800.9073065
623.8525231
503.0751752
423.3011863
372.4014169
341.0790528
322.5081982
311.9060699
306.0792804
302.9964902
301.4260347
300.6554366
300.2910577
300.1249307
300.0518582
300.0208285
300.0080991
300.0030507
300.0011139
300.0003944
300.0001355
300.0000452
300.0000147
300.0000046
300.0000014
300.0000004
300.0000001
300
300
300
300
300
300
300
300
300
300
300
300
540.4240235
545.3049019
559.2736696
590.6594675
656.399808
793.0932853
1075.716823
1743.595408
1780.928627
1340.048425
1013.236424
776.1656627
608.7204668
494.0067502
417.9958294
369.3800753
339.4077868
321.611681
311.440219
305.8449756
302.8824752
301.3723693
300.6310043
300.2802974
300.1203452
300.0499668
300.0200731
300.0078068
300.0029411
300.001074
300.0003804
300.0001307
300.0000436
300.0000141
300.0000045
300.0000014
300.0000004
300.0000001
300
300
300
300
300
300
300
300
300
300
300
300
534.5991238
539.0015047
551.5813181
579.6252682
637.6355091
756.4869427
995.0937723
1579.892017
1600.20854
1224.917267
940.3236382
730.5463876
580.6686589
477.1259644
408.0881251
363.7234407
336.2724827
319.9270767
310.5637019
305.4036421
302.667524
301.271118
300.5848779
300.2599715
300.1116794
300.046391
300.0186444
300.0072538
300.0027337
300.0009985
300.0003537
300.0001216
300.0000406
300.0000132
300.0000042
300.0000013
300.0000004
300.0000001
300
300
300
300
300
300
300
300
300
300
300
300
526.525149
530.3476297
541.2613743
565.3959465
614.6934913
713.4656857
908.1027797
1372.686246
1373.649717
1077.748999
845.7404633
670.7032998
543.5539361
454.6428985
394.8237905
356.1193301
332.0439427
317.6490656
309.3758717
304.8044966
302.3752788
301.1332868
300.522021
300.2322484
300.0998507
300.0415067
300.0166918
300.0064977
300.00245
300.0008953
300.0003173
300.0001091
300.0000364
300.0000118
300.0000037
300.0000011
300.0000003
300.0000001
300
300
300
300
300
300
300
300
300
300
300
300
516.8018006
520.0149189
529.1809406
549.278915
589.6992148
668.2084366
821.6271696
1151.465204
1137.006804
920.1060902
742.4648763
604.3955591
501.9623654
429.2252814
379.7241205
347.4154101
327.1824447
315.0206969
308.0013411
304.1095015
302.0355971
300.9728113
300.4487319
300.1998844
300.0860272
300.0357935
300.0144059
300.0056119
300.0021173
300.0007742
300.0002745
300.0000944
300.0000315
300.0000102
300.0000032
300.000001
300.0000003
300.0000001
300
300
300
300
300
300
300
300
300
300
300
300
506.0404225
508.6684529
516.1559773
532.4250865
564.3462843
624.043763
739.6738262
941.6012955
918.8419451
770.3302345
642.0800832
538.807026
460.2607677
403.4687846
364.2943679
338.4615167
322.1542773
312.2902541
306.5682668
303.3827329
301.679495
300.8042223
300.3715989
300.1657703
300.0714368
300.0297563
300.011988
300.0046741
300.0017649
300.0006458
300.0002291
300.0000789
300.0000264
300.0000086
300.0000027
300.0000008
300.0000002
300.0000001
300
300
300
300
300
300
300
300
300
300
300
300
494.8049622
496.9149572
502.9380723
515.9382562
540.8101917
586.9827402
674.2918507
758.6760953
735.9548561
640.5491868
552.8641273
479.3636578
421.8849215
379.4797249
349.7853708
329.9770591
317.3599894
309.6735282
305.1890932
302.6808473
301.3345728
300.6405194
300.2965422
300.132514
300.0571907
300.0238536
300.0096211
300.0037552
300.0014192
300.0005197
300.0001845
300.0000636
300.0000213
300.0000069
300.0000022
300.0000007
300.0000002
300.0000001
300
300
300
300
300
300
300
300
300
300
300
300
483.5623907
485.2445083
490.0803751
500.4160317
519.9021475
556.6896786
616.4617694
612.8088197
594.2634769
536.3139971
479.2274212
429.2559121
388.9979919
358.6515092
337.0557479
322.4700129
313.0887043
307.3290211
303.9475778
302.0465311
301.0218215
300.4916666
300.2281295
300.1021385
300.0441553
300.0184439
300.0074489
300.0029107
300.0011012
300.0004036
300.0001434
300.0000495
300.0000165
300.0000054
300.0000017
300.0000005
300.0000002
300
300
300
300
300
300
300
300
300
300
300
300
300
472.6593032
474.0133059
477.9329311
486.1807232
501.8318276
529.8216519
559.8932198
504.515898
491.3732171
457.7836302
422.171054
389.5746714
362.5025618
341.6394655
326.5429044
316.2142825
309.5030296
305.3487974
302.8936147
301.5057304
300.7542103
300.3639039
300.1692538
300.0759374
300.0328888
300.0137601
300.0055653
300.0021775
300.0008248
300.0003026
300.0001076
300.0000371
300.0000124
300.000004
300.0000013
300.0000004
300.0000001
300
300
300
300
300
300
300
300
300
300
300
300
300
462.3246015
463.4435541
466.6603112
473.402093
486.4057393
505.9515735
508.884161
429.0451793
420.5688749
401.7691069
380.3301385
359.834336
342.2969295
328.4832413
318.3198723
311.2753017
306.6502044
303.7631588
302.0451135
301.0683702
300.5369467
300.2598336
300.1211587
300.0544808
300.0236424
300.0099089
300.0040139
300.0015727
300.0005964
300.0002191
300.000078
300.0000269
300.000009
300.0000029
300.0000009
300.0000003
300.0000001
300
300
300
300
300
300
300
300
300
300
300
300
300
452.6879875
453.642055
456.3243861
462.0113317
472.0263461
481.3725181
466.0174985
379.2596563
373.9750761
363.657452
351.1021772
338.6166952
327.6339289
318.8023867
312.1996138
307.5644345
304.4898269
302.5544418
301.3946948
300.73152
300.3689333
300.1790733
300.0837232
300.0377357
300.0164097
300.0068903
300.0027957
300.001097
300.0004166
300.0001532
300.0000546
300.0000189
300.0000063
300.0000021
300.0000007
300.0000002
300.0000001
300
300
300
300
300
300
300
300
300
300
300
300
300
443.7923394
444.6166243
446.9162634
451.7292024
458.57912
458.2401512
431.668739
347.8442022
344.4259108
338.7661979
331.5482879
324.138935
317.4647112
311.9974664
307.8490862
304.9017791
302.927435
301.6744513
300.9184754
300.483689
300.2448042
300.1191916
300.0558785
300.0252464
300.0110023
300.0046286
300.0018813
300.0007393
300.0002812
300.0001035
300.0000369
300.0000128
300.0000043
300.0000014
300.0000004
300.0000001
300
300
300
300
300
300
300
300
300
300
300
300
300
300
435.6211512
436.3428059
438.3880157
442.1065611
445.0559517
437.4983934
404.8842434
328.6581728
326.2457133
323.0763906
318.9618031
314.6522635
310.7000869
307.4128543
304.8863787
303.071928
301.8453734
301.0609592
300.5845897
300.3090805
300.1569794
300.0766677
300.0360415
300.0163237
300.0071293
300.0030052
300.0012236
300.0004816
300.0001834
300.0000676
300.0000242
300.0000084
300.0000028
300.0000009
300.0000003
300.0000001
300
300
300
300
300
300
300
300
300
300
300
300
300
300
428.1295993
428.7799441
430.5178994
433.0483426
431.9826419
419.2284952
384.0732957
317.188208
315.3332947
313.4866152
311.1353875
308.6616226
306.3702594
304.4438622
302.9483021
301.8644976
301.1260258
300.65048
300.3599438
300.1910306
300.0973517
300.0476898
300.0224798
300.0102062
300.0044673
300.0018868
300.0007696
300.0003034
300.0001157
300.0000427
300.0000153
300.0000053
300.0000018
300.0000006
300.0000002
300.0000001
300
300
300
300
300
300
300
300
300
300
300
300
300
300
421.2936979
421.9093993
423.2716076
424.0178114
419.4236632
403.0822503
367.5906631
310.4090108
308.9127267
307.7793608
306.417057
305.0041949
303.6959037
302.5908506
301.7275367
301.0978008
300.6660238
300.3863703
300.2146229
300.1143046
300.0584362
300.0287085
300.0135677
300.0061745
300.0027084
300.0011461
300.0004683
300.0001849
300.0000706
300.0000261
300.0000094
300.0000032
300.0000011
300.0000004
300.0000001
300
300
300
300
300
300
300
300
300
300
300
300
300
300
300
415.0475583
415.5458294
416.330388
414.9432365
407.3579034
388.6564921
354.1727412
306.4143988
305.1938268
304.4591261
303.6495692
302.8387035
302.0975134
301.4735055
300.9854486
300.6283328
300.3825211
300.2226588
300.1240841
300.0662863
300.0339836
300.0167392
300.0079301
300.0036169
300.0015898
300.000674
300.0002759
300.0001091
300.0000417
300.0000155
300.0000055
300.0000019
300.0000006
300.0000002
300.0000001
300
300
300
300
300
300
300
300
300
300
300
300
300
300
300
409.389625
409.7154591
409.3743402
405.8133437
395.8023489
375.7182636
343.2262777
304.0551077
303.064606
302.5634281
302.0645721
301.5912874
301.1704745
300.8209188
300.5491027
300.3505479
300.2138052
300.1247235
300.0696676
300.037304
300.019169
300.009463
300.0044925
300.0020531
300.0009041
300.000384
300.0001574
300.0000624
300.0000239
300.0000089
300.0000032
300.0000011
300.0000004
300.0000001
300
300
300
300
300
300
300
300
300
300
300
300
300
300
300
300
404.2006761
404.0097275
402.24319
396.6823414
384.8272008
364.2069245
334.613586
302.6565585
301.8539878
301.4959721
301.1742419
300.8894613
300.6469655
300.4506678
300.3002937
300.1913598
300.1166575
300.0680789
300.0380635
300.0204078
300.0105025
300.005193
300.0024694
300.0011304
300.0004986
300.0002121
300.0000871
300.0000345
300.0000132
300.0000049
300.0000018
300.0000006
300.0000002
300.0000001
300
300
300
300
300
300
300
300
300
300
300
300
300
300
300
300
399.0600691
398.0957581
394.8531747
387.5897935
374.4528374
354.0269822
328.0850125
301.8206701
301.1648529
300.8984972
300.6803782
300.5015993
300.3577613
300.2458059
300.1622589
300.1027612
300.0624031
300.0363357
300.0202936
300.0108775
300.0055995
300.0027705
300.0013187
300.0006043
300.0002668
300.0001136
300.0000467
300.0000186
300.0000071
300.0000026
300.000001
300.0000003
300.0000001
300
300
300
300
300
300
300
300
300
300
300
300
300
300
300
300
300
393.5595382
391.7305933
387.0920547
378.4072398
364.4085234
344.7255086
322.9033511
301.3013792
300.7644409
300.560975
300.4065672
300.289019
300.2002703
300.1345843
300.0873826
300.054676
300.0329172
300.0190519
300.0105976
300.0056657
300.0029122
300.0014399
300.0006852
300.0003141
300.0001388
300.0000591
300.0000243
300.0000097
300.0000037
300.0000014
300.0000005
300.0000002
300.0000001
300
300
300
300
300
300
300
300
300
300
300
300
300
300
300
300
300
387.3388368
384.6341469
378.6609638
368.6480798
353.9005006
335.7160865
318.1773678
300.9463403
300.5190516
300.3634864
300.2516346
300.1715232
300.1145965
300.0747078
300.0473354
300.0290565
300.0172385
300.0098681
300.0054449
300.0028941
300.0014816
300.0007306
300.0003471
300.0001589
300.0000702
300.0000299
300.0000123
300.0000049
300.0000019
300.0000007
300.0000003
300.0000001
300
300
300
300
300
300
300
300
300
300
300
300
300
300
300
300
300
300
379.8430644
376.2504978
368.9349663
357.6733968
342.8348851
327.5197152
313.836711
300.6815197
300.3557526
300.2397982
300.1593344
300.1042223
300.0669612
300.0421377
300.0258932
300.0154917
300.009001
300.0050679
300.0027606
300.0014531
300.0007385
300.0003622
300.0001715
300.0000783
300.0000345
300.0000147
300.0000061
300.0000024
300.0000009
300.0000003
300.0000001
300
300
300
300
300
300
300
300
300
300
300
300
300
300
300
300
300
300
300
369.8024122
365.2934183
356.7285107
344.8790608
331.6263422
319.8513561
309.8027817
300.4662231
300.2351983
300.1541321
300.0991909
300.0626892
300.0388854
300.0236458
300.0140735
300.0081828
300.0046384
300.0025582
300.0013703
300.0007117
300.000358
300.0001742
300.000082
300.0000373
300.0000164
300.000007
300.0000029
300.0000011
300.0000004
300.0000002
300.0000001
300
300
300
300
300
300
300
300
300
300
300
300
300
300
300
300
300
300
300
354.1068316
348.8452489
339.9772415
329.7093722
320.1231585
312.4503839
306.0415414
300.2783112
300.1360055
300.0872617
300.0549149
300.0338754
300.020476
300.0121238
300.007028
300.0039852
300.0022079
300.0011935
300.0006284
300.0003218
300.0001601
300.0000772
300.0000361
300.0000163
300.0000072
300.000003
300.0000012
300.0000005
300.0000002
300.0000001
300
300
300
300
300
300
300
300
300
300
300
300
300
300
300
300
300
300
300
300
325.8400045
321.5182136
315.6986636
310.9863289
307.368259
304.5640433
302.2162261
300.0977042
300.0452041
300.0284654
300.0176709
300.0107595
300.0064152
300.0037439
300.0021384
300.0011949
300.0006529
300.0003485
300.0001814
300.000092
300.0000454
300.0000218
300.0000101
300.0000046
300.000002
300.0000008
300.0000003
300.0000001
300.0000001
300
300
300
300
300
300
300
300
300
300
300
300
300
300
300
300
300
300
300
300
300
)
;

boundaryField
{
    lowerWall
    {
        type            fixedValue;
        value           uniform 300;
    }
    atmosphere
    {
        type            zeroGradient;
    }
    rightWall
    {
        type            empty;
    }
    leftWall
    {
        type            empty;
    }
    frontAndBack
    {
        type            fixedValue;
        value           uniform 300;
    }
}


// ************************************************************************* //
