/*--------------------------------*- C++ -*----------------------------------*\
  =========                 |
  \\      /  F ield         | OpenFOAM: The Open Source CFD Toolbox
   \\    /   O peration     | Website:  https://openfoam.org
    \\  /    A nd           | Version:  6
     \\/     M anipulation  |
\*---------------------------------------------------------------------------*/
FoamFile
{
    version     2.0;
    format      ascii;
    class       volVectorField;
    location    "0.14";
    object      U;
}
// * * * * * * * * * * * * * * * * * * * * * * * * * * * * * * * * * * * * * //

dimensions      [0 1 -1 0 0 0 0];

internalField   nonuniform List<vector> 
2500
(
(0 -1.365108941 -0.7028285477)
(0 -0.0009147661411 -0.3361535163)
(0 0.1544593354 -0.1290596457)
(0 0.2942867816 -0.04269100482)
(0 0.2987893997 0.002989393926)
(0 0.2322592786 0.04426521054)
(0 0.03462332586 0.07073407971)
(0 -0.0009889393869 0.002968273139)
(0 -5.144976366e-14 1.305122408e-17)
(0 -1.023291281e-13 -4.471113074e-16)
(0 -1.008750131e-13 -8.791998112e-16)
(0 -9.871755095e-14 -1.278338072e-15)
(0 -9.580594135e-14 -1.632833545e-15)
(0 -9.223884773e-14 -1.933773932e-15)
(0 -8.812876822e-14 -2.175805328e-15)
(0 -8.3595345e-14 -2.357136924e-15)
(0 -7.875862906e-14 -2.479145643e-15)
(0 -7.373336688e-14 -2.545752313e-15)
(0 -6.86246303e-14 -2.562703598e-15)
(0 -6.352487402e-14 -2.536863218e-15)
(0 -5.851233146e-14 -2.475583039e-15)
(0 -5.365054968e-14 -2.386193058e-15)
(0 -4.89888126e-14 -2.275623245e-15)
(0 -4.456319417e-14 -2.150151577e-15)
(0 -4.039800605e-14 -2.015261378e-15)
(0 -3.650744298e-14 -1.87558598e-15)
(0 -3.289727405e-14 -1.734917964e-15)
(0 -2.956647149e-14 -1.596262296e-15)
(0 -2.65087063e-14 -1.461916039e-15)
(0 -2.371367138e-14 -1.333561184e-15)
(0 -2.116821553e-14 -1.212360764e-15)
(0 -1.885728857e-14 -1.099051599e-15)
(0 -1.676470842e-14 -9.940295547e-16)
(0 -1.487376738e-14 -8.97425112e-16)
(0 -1.316769764e-14 -8.091684557e-16)
(0 -1.163001712e-14 -7.290441758e-16)
(0 -1.024477555e-14 -6.567362844e-16)
(0 -8.996719202e-15 -5.918645527e-16)
(0 -7.871390484e-15 -5.340133092e-16)
(0 -6.855176382e-15 -4.827538597e-16)
(0 -5.935317306e-15 -4.37661623e-16)
(0 -5.099885976e-15 -3.983289794e-16)
(0 -4.337744044e-15 -3.643747044e-16)
(0 -3.638482497e-15 -3.354507429e-16)
(0 -2.992350552e-15 -3.112469661e-16)
(0 -2.390176475e-15 -2.914944846e-16)
(0 -1.823282627e-15 -2.759681207e-16)
(0 -1.283395419e-15 -2.644890479e-16)
(0 -7.625470515e-16 -2.569304323e-16)
(0 -2.529512351e-16 -2.53237425e-16)
(0 -1.32547619 -1.159064545)
(0 -0.676933196 -0.7676199941)
(0 -0.2586743038 -0.3281752348)
(0 -0.007143458862 -0.07578428063)
(0 0.04252283246 0.04136291803)
(0 0.06786146522 0.1315553965)
(0 -0.01788526276 0.1684914954)
(0 -0.0001327308281 0.006066820954)
(0 -5.189993615e-14 2.339751396e-17)
(0 -1.032183696e-13 -1.36192958e-15)
(0 -1.017062399e-13 -2.670491671e-15)
(0 -9.947118468e-14 -3.879682233e-15)
(0 -9.646137721e-14 -4.95208568e-15)
(0 -9.278181951e-14 -5.860269089e-15)
(0 -8.855213121e-14 -6.588164343e-15)
(0 -8.389868532e-14 -7.130793485e-15)
(0 -7.894724445e-14 -7.492910419e-15)
(0 -7.381692484e-14 -7.686995168e-15)
(0 -6.86157412e-14 -7.730996137e-15)
(0 -6.343775347e-14 -7.646133188e-15)
(0 -5.83616613e-14 -7.454971854e-15)
(0 -5.345058989e-14 -7.179880308e-15)
(0 -4.875277112e-14 -6.841900497e-15)
(0 -4.43028323e-14 -6.460009104e-15)
(0 -4.012344046e-14 -6.050711559e-15)
(0 -3.622709956e-14 -5.627898703e-15)
(0 -3.261795037e-14 -5.20289523e-15)
(0 -2.929346956e-14 -4.784636376e-15)
(0 -2.624600519e-14 -4.379920553e-15)
(0 -2.346411611e-14 -3.993697645e-15)
(0 -2.093370595e-14 -3.629364026e-15)
(0 -1.863895736e-14 -3.289044909e-15)
(0 -1.656308194e-14 -2.973852312e-15)
(0 -1.468890628e-14 -2.684112598e-15)
(0 -1.29993167e-14 -2.419561611e-15)
(0 -1.147758495e-14 -2.179508099e-15)
(0 -1.010759593e-14 -1.962967757e-15)
(0 -8.873996227e-15 -1.768771094e-15)
(0 -7.762279791e-15 -1.595648671e-15)
(0 -6.758824696e-15 -1.442297264e-15)
(0 -5.850892425e-15 -1.30743028e-15)
(0 -5.026599058e-15 -1.189815421e-15)
(0 -4.274865807e-15 -1.088302239e-15)
(0 -3.585354759e-15 -1.00184181e-15)
(0 -2.948394294e-15 -9.29500433e-16)
(0 -2.35489763e-15 -8.704689635e-16)
(0 -1.796277191e-15 -8.240692193e-16)
(0 -1.26435773e-15 -7.897590288e-16)
(0 -7.512954286e-16 -7.671383633e-16)
(0 -2.492582278e-16 -7.559624892e-16)
(0 -1.317270004 -1.415931057)
(0 -1.039721351 -1.241350265)
(0 -0.5599107906 -0.7352455041)
(0 -0.2131424398 -0.2617314671)
(0 -0.07438504325 0.002106454049)
(0 -0.05783510751 0.1318135482)
(0 -0.02843477495 0.1623950391)
(0 0.0003638437572 -0.003167356085)
(0 -5.280788464e-14 -2.220456766e-17)
(0 -1.050111473e-13 -2.331782567e-15)
(0 -1.033927658e-13 -4.561016675e-15)
(0 -1.00999145e-13 -6.617793028e-15)
(0 -9.77865282e-14 -8.435536602e-15)
(0 -9.387492639e-14 -9.96703838e-15)
(0 -8.939929261e-14 -1.118578805e-14)
(0 -8.450009108e-14 -1.208497659e-14)
(0 -7.931483074e-14 -1.267473863e-14)
(0 -7.39714526e-14 -1.297836955e-14)
(0 -6.858376832e-14 -1.302821536e-14)
(0 -6.324884974e-14 -1.286177729e-14)
(0 -5.804607858e-14 -1.251837739e-14)
(0 -5.303747833e-14 -1.203655101e-14)
(0 -4.826894139e-14 -1.145219137e-14)
(0 -4.377200523e-14 -1.07973802e-14)
(0 -3.956589565e-14 -1.009978871e-14)
(0 -3.565962665e-14 -9.382517138e-15)
(0 -3.205401173e-14 -8.664245843e-15)
(0 -2.874349681e-14 -7.959587908e-15)
(0 -2.571776757e-14 -7.279554929e-15)
(0 -2.296311485e-14 -6.632069769e-15)
(0 -2.046356279e-14 -6.02247984e-15)
(0 -1.820177685e-14 -5.454040815e-15)
(0 -1.615977611e-14 -4.928353335e-15)
(0 -1.431947668e-14 -4.445744504e-15)
(0 -1.266309314e-14 -4.005592389e-15)
(0 -1.117342327e-14 -3.606595838e-15)
(0 -9.834038549e-15 -3.246994344e-15)
(0 -8.629400115e-15 -2.924743895e-15)
(0 -7.544916654e-15 -2.637655108e-15)
(0 -6.566957991e-15 -2.383499803e-15)
(0 -5.682835463e-15 -2.160091691e-15)
(0 -4.880757936e-15 -1.965346237e-15)
(0 -4.149770433e-15 -1.797324083e-15)
(0 -3.479680691e-15 -1.654261729e-15)
(0 -2.860977706e-15 -1.534592565e-15)
(0 -2.284745262e-15 -1.436960777e-15)
(0 -1.742572692e-15 -1.360230118e-15)
(0 -1.226464563e-15 -1.303488909e-15)
(0 -7.287505119e-16 -1.26605123e-15)
(0 -2.41775361e-16 -1.247448953e-15)
(0 -1.172887401 -1.441873719)
(0 -1.240034891 -1.551750682)
(0 -0.837416797 -1.165761596)
(0 -0.4227409961 -0.5844674025)
(0 -0.09043642611 -0.06885449128)
(0 -0.08193215929 0.08215025129)
(0 -0.01011277969 0.09858814152)
(0 0.000295025136 -0.008694458548)
(0 -5.422713193e-14 -5.090534203e-17)
(0 -1.077728996e-13 -3.391431799e-15)
(0 -1.059922503e-13 -6.623879405e-15)
(0 -1.033457046e-13 -9.594829285e-15)
(0 -9.981062256e-14 -1.220511259e-14)
(0 -9.553207096e-14 -1.438644528e-14)
(0 -9.067006942e-14 -1.610286948e-14)
(0 -8.53876359e-14 -1.734849902e-14)
(0 -7.984063741e-14 -1.814262873e-14)
(0 -7.417040157e-14 -1.85234767e-14)
(0 -6.849914895e-14 -1.854168031e-14)
(0 -6.29279155e-14 -1.825435562e-14)
(0 -5.753643502e-14 -1.772018873e-14)
(0 -5.238440386e-14 -1.699573778e-14)
(0 -4.751360031e-14 -1.613291733e-14)
(0 -4.295042965e-14 -1.517751379e-14)
(0 -3.87085774e-14 -1.416852526e-14)
(0 -3.47915567e-14 -1.313811081e-14)
(0 -3.119502114e-14 -1.211195431e-14)
(0 -2.790877865e-14 -1.110988125e-14)
(0 -2.491848705e-14 -1.014660389e-14)
(0 -2.220704102e-14 -9.232504928e-15)
(0 -1.975567699e-14 -8.374399198e-15)
(0 -1.754483085e-14 -7.576236173e-15)
(0 -1.555478563e-14 -6.839723623e-15)
(0 -1.376614533e-14 -6.164864884e-15)
(0 -1.216016804e-14 -5.550410409e-15)
(0 -1.07189869e-14 -4.994229249e-15)
(0 -9.425743988e-15 -4.493608814e-15)
(0 -8.26465699e-15 -4.045492407e-15)
(0 -7.221035699e-15 -3.6466641e-15)
(0 -6.281261279e-15 -3.293890041e-15)
(0 -5.432738859e-15 -2.98402436e-15)
(0 -4.66383145e-15 -2.714086847e-15)
(0 -3.963781299e-15 -2.481318532e-15)
(0 -3.322623241e-15 -2.283220294e-15)
(0 -2.731093343e-15 -2.117578701e-15)
(0 -2.180535183e-15 -1.982482489e-15)
(0 -1.662805322e-15 -1.876332336e-15)
(0 -1.170178843e-15 -1.79784589e-15)
(0 -6.952554728e-16 -1.746059263e-15)
(0 -2.306559508e-16 -1.720326034e-15)
(0 -0.905618227 -1.282765216)
(0 -1.255082556 -1.656049124)
(0 -1.036046353 -1.533429397)
(0 -0.6641412534 -1.023429357)
(0 -0.205532577 -0.3419562536)
(0 -0.016889376 0.04212412106)
(0 -0.005735614921 0.05314361407)
(0 8.870349738e-05 -0.01011558245)
(0 -5.619509805e-14 -5.949958393e-17)
(0 -1.116181622e-13 -4.588343322e-15)
(0 -1.095961632e-13 -8.948157207e-15)
(0 -1.065803781e-13 -1.293237703e-14)
(0 -1.025781442e-13 -1.640347649e-14)
(0 -9.777268328e-14 -1.927060898e-14)
(0 -9.236134635e-14 -2.149061804e-14)
(0 -8.653985033e-14 -2.306342478e-14)
(0 -8.048980842e-14 -2.402373632e-14)
(0 -7.437050418e-14 -2.443119341e-14)
(0 -6.831464725e-14 -2.436066308e-14)
(0 -6.242735816e-14 -2.389378394e-14)
(0 -5.678746074e-14 -2.311230428e-14)
(0 -5.145020692e-14 -2.209332143e-14)
(0 -4.64507174e-14 -2.090625684e-14)
(0 -4.180761316e-14 -1.96112629e-14)
(0 -3.752649267e-14 -1.825871624e-14)
(0 -3.36030557e-14 -1.688947177e-14)
(0 -3.002578217e-14 -1.55356007e-14)
(0 -2.677814639e-14 -1.422139616e-14)
(0 -2.384039124e-14 -1.296448773e-14)
(0 -2.119091016e-14 -1.177695647e-14)
(0 -1.880729404e-14 -1.06663822e-14)
(0 -1.666710128e-14 -9.636784574e-15)
(0 -1.474840483e-14 -8.689441228e-15)
(0 -1.303016346e-14 -7.823580144e-15)
(0 -1.14924575e-14 -7.036952639e-15)
(0 -1.011662167e-14 -6.326298159e-15)
(0 -8.885301707e-15 -5.687714456e-15)
(0 -7.7824554e-15 -5.116947214e-15)
(0 -6.793314288e-15 -4.609612621e-15)
(0 -5.904318252e-15 -4.161365213e-15)
(0 -5.103032268e-15 -3.768021823e-15)
(0 -4.378052107e-15 -3.42565096e-15)
(0 -3.71890388e-15 -3.13063542e-15)
(0 -3.11594086e-15 -2.8797146e-15)
(0 -2.560239901e-15 -2.670011751e-15)
(0 -2.043498896e-15 -2.499050372e-15)
(0 -1.557936093e-15 -2.364763041e-15)
(0 -1.09619149e-15 -2.26549522e-15)
(0 -6.512306564e-16 -2.200006024e-15)
(0 -2.16042132e-16 -2.16746781e-15)
(0 -0.5641064094 -0.9887268463)
(0 -1.098388694 -1.534363811)
(0 -1.10869365 -1.731511897)
(0 -0.8738928497 -1.442405727)
(0 -0.4138462859 -0.7545427703)
(0 -0.01059109851 -0.06386457952)
(0 -0.002899694707 0.06342598568)
(0 -0.0002436694468 -0.01286205893)
(0 -5.879247429e-14 -7.655217322e-17)
(0 -1.16704182e-13 -5.984812576e-15)
(0 -1.14336284e-13 -1.164792747e-14)
(0 -1.108010239e-13 -1.678281213e-14)
(0 -1.061488545e-13 -2.120556905e-14)
(0 -1.006192125e-13 -2.480168078e-14)
(0 -9.446288522e-14 -2.752539498e-14)
(0 -8.792075418e-14 -2.9390721e-14)
(0 -8.120840603e-14 -3.045762212e-14)
(0 -7.450732833e-14 -3.081686352e-14)
(0 -6.796173948e-14 -3.057599393e-14)
(0 -6.16795567e-14 -2.984783586e-14)
(0 -5.57359725e-14 -2.874196121e-14)
(0 -5.017835642e-14 -2.735903295e-14)
(0 -4.503154177e-14 -2.578757439e-14)
(0 -4.030288905e-14 -2.410261211e-14)
(0 -3.598678627e-14 -2.236564874e-14)
(0 -3.206844115e-14 -2.062549799e-14)
(0 -2.852694553e-14 -1.891961363e-14)
(0 -2.533766568e-14 -1.727564247e-14)
(0 -2.247404736e-14 -1.571301665e-14)
(0 -1.990893548e-14 -1.424446858e-14)
(0 -1.761550509e-14 -1.287740199e-14)
(0 -1.556788988e-14 -1.161508867e-14)
(0 -1.37415812e-14 -1.045768366e-14)
(0 -1.211365675e-14 -9.403066583e-15)
(0 -1.066288605e-14 -8.447524741e-15)
(0 -9.369748722e-15 -7.586297732e-15)
(0 -8.216393042e-15 -6.814003955e-15)
(0 -7.186555155e-15 -6.124968841e-15)
(0 -6.265453698e-15 -5.5134728e-15)
(0 -5.439670481e-15 -4.973934752e-15)
(0 -4.697024607e-15 -4.501044825e-15)
(0 -4.026445047e-15 -4.089857597e-15)
(0 -3.417844939e-15 -3.735855292e-15)
(0 -2.861999572e-15 -3.434988549e-15)
(0 -2.350429114e-15 -3.183700892e-15)
(0 -1.875286472e-15 -2.978941741e-15)
(0 -1.429250171e-15 -2.818171755e-15)
(0 -1.005421826e-15 -2.699363441e-15)
(0 -5.972280625e-16 -2.620999304e-15)
(0 -1.98117737e-16 -2.582069354e-15)
(0 -0.2241610343 -0.633253574)
(0 -0.8162266293 -1.228976414)
(0 -1.046310563 -1.721958341)
(0 -0.9966201807 -1.742890415)
(0 -0.6283217099 -1.197811517)
(0 -0.1632004217 -0.3643088599)
(0 0.005374102064 0.0520638097)
(0 -0.0008036347426 -0.01884305434)
(0 -6.214382208e-14 -1.21997479e-16)
(0 -1.232483962e-13 -7.667217744e-15)
(0 -1.203941628e-13 -1.487578207e-14)
(0 -1.161380197e-13 -2.134502885e-14)
(0 -1.105970128e-13 -2.683396333e-14)
(0 -1.040925092e-13 -3.120485157e-14)
(0 -9.695038657e-14 -3.441833046e-14)
(0 -8.947207747e-14 -3.651628821e-14)
(0 -8.191595094e-14 -3.759908376e-14)
(0 -7.448887599e-14 -3.780261829e-14)
(0 -6.734561958e-14 -3.727862954e-14)
(0 -6.059332545e-14 -3.617964893e-14)
(0 -5.429865783e-14 -3.464873253e-14)
(0 -4.849582009e-14 -3.281334232e-14)
(0 -4.319429657e-14 -3.078246338e-14)
(0 -3.838568752e-14 -2.864602599e-14)
(0 -3.404937855e-14 -2.647582556e-14)
(0 -3.015702059e-14 -2.4327307e-14)
(0 -2.667592665e-14 -2.22417546e-14)
(0 -2.35715494e-14 -2.024857707e-14)
(0 -2.080921736e-14 -1.836749464e-14)
(0 -1.83552955e-14 -1.661052003e-14)
(0 -1.617791412e-14 -1.498368426e-14)
(0 -1.424738295e-14 -1.348849599e-14)
(0 -1.253638274e-14 -1.212314631e-14)
(0 -1.102000454e-14 -1.08834832e-14)
(0 -9.675688652e-15 -9.763785291e-15)
(0 -8.483100887e-15 -8.757365711e-15)
(0 -7.423972816e-15 -7.85703519e-15)
(0 -6.481924245e-15 -7.055450876e-15)
(0 -5.6422802e-15 -6.3453738e-15)
(0 -4.891890278e-15 -5.71985452e-15)
(0 -4.218955113e-15 -5.172363159e-15)
(0 -3.612862574e-15 -4.696877136e-15)
(0 -3.064034832e-15 -4.287937301e-15)
(0 -2.563786461e-15 -3.940681043e-15)
(0 -2.104193093e-15 -3.650859129e-15)
(0 -1.677969759e-15 -3.414841538e-15)
(0 -1.278357794e-15 -3.229616394e-15)
(0 -8.990190386e-16 -3.092785092e-15)
(0 -5.33936569e-16 -3.002556006e-15)
(0 -1.771121823e-16 -2.957738528e-15)
(0 0.03430966512 -0.2914741547)
(0 -0.4756458398 -0.8143868988)
(0 -0.8678785443 -1.51141385)
(0 -1.015623563 -1.87517022)
(0 -0.7962581946 -1.599372664)
(0 -0.3368760873 -0.7585527591)
(0 0.004853404869 -0.007236760001)
(0 -0.0008892959638 -0.02598326612)
(0 -6.642227779e-14 -1.937801991e-16)
(0 -1.315482715e-13 -9.756880991e-15)
(0 -1.280140951e-13 -1.884262225e-14)
(0 -1.227592051e-13 -2.688704246e-14)
(0 -1.160086772e-13 -3.357991245e-14)
(0 -1.082035796e-13 -3.876502574e-14)
(0 -9.977432187e-14 -4.242649488e-14)
(0 -9.110150748e-14 -4.465683996e-14)
(0 -8.249473611e-14 -4.561972722e-14)
(0 -7.418687411e-14 -4.551589237e-14)
(0 -6.633877012e-14 -4.455630441e-14)
(0 -5.904965969e-14 -4.294347582e-14)
(0 -5.236966589e-14 -4.086007012e-14)
(0 -4.631208726e-14 -3.846323582e-14)
(0 -4.086422544e-14 -3.58830016e-14)
(0 -3.599625123e-14 -3.322328482e-14)
(0 -3.166806728e-14 -3.056439147e-14)
(0 -2.783437019e-14 -2.796620942e-14)
(0 -2.44482156e-14 -2.547156932e-14)
(0 -2.146340572e-14 -2.310945532e-14)
(0 -1.883599032e-14 -2.089789491e-14)
(0 -1.652512511e-14 -1.884645546e-14)
(0 -1.449348105e-14 -1.695833584e-14)
(0 -1.270735193e-14 -1.523207665e-14)
(0 -1.11365684e-14 -1.366293044e-14)
(0 -9.754295731e-15 -1.224393965e-14)
(0 -8.536768566e-15 -1.096677025e-14)
(0 -7.462998622e-15 -9.822345626e-15)
(0 -6.514478207e-15 -8.801319926e-15)
(0 -5.674893765e-15 -7.894424452e-15)
(0 -4.929857342e-15 -7.092715134e-15)
(0 -4.26665984e-15 -6.387744058e-15)
(0 -3.674047223e-15 -5.771673563e-15)
(0 -3.142019189e-15 -5.237347728e-15)
(0 -2.661648846e-15 -4.778332887e-15)
(0 -2.224921399e-15 -4.388936318e-15)
(0 -1.824589609e-15 -4.064210167e-15)
(0 -1.454043738e-15 -3.799946036e-15)
(0 -1.107193724e-15 -3.592664366e-15)
(0 -7.783614376e-16 -3.439601727e-15)
(0 -4.621814985e-16 -3.338698321e-15)
(0 -1.533002591e-16 -3.288587363e-15)
(0 0.1438297873 -0.07391245629)
(0 -0.156618857 -0.3958301011)
(0 -0.6095670672 -1.14674069)
(0 -0.9334251439 -1.817200945)
(0 -0.8991125771 -1.899784586)
(0 -0.501367315 -1.200832931)
(0 -0.01698428559 -0.1879666623)
(0 0.0003580759296 -0.02848382265)
(0 -7.18604629e-14 -2.610705075e-16)
(0 -1.420327534e-13 -1.243663401e-14)
(0 -1.375243243e-13 -2.385000688e-14)
(0 -1.308753099e-13 -3.377983688e-14)
(0 -1.224749961e-13 -4.183291737e-14)
(0 -1.129390916e-13 -4.784830232e-14)
(0 -1.028422008e-13 -5.186542769e-14)
(0 -9.266530982e-14 -5.406466414e-14)
(0 -8.277500335e-14 -5.470704154e-14)
(0 -7.342545318e-14 -5.408496177e-14)
(0 -6.477320302e-14 -5.248731911e-14)
(0 -5.689709116e-14 -5.017800739e-14)
(0 -4.981841783e-14 -4.738497196e-14)
(0 -4.351875158e-14 -4.429665989e-14)
(0 -3.795434557e-14 -4.106314057e-14)
(0 -3.306707739e-14 -3.779982246e-14)
(0 -2.879230315e-14 -3.459233154e-14)
(0 -2.506419845e-14 -3.15016393e-14)
(0 -2.181917254e-14 -2.856891294e-14)
(0 -1.899787499e-14 -2.581982248e-14)
(0 -1.65462175e-14 -2.326820627e-14)
(0 -1.441573643e-14 -2.091909459e-14)
(0 -1.256353531e-14 -1.877114364e-14)
(0 -1.095197756e-14 -1.68185556e-14)
(0 -9.548245747e-15 -1.505256628e-14)
(0 -8.32384435e-15 -1.346257867e-14)
(0 -7.254094625e-15 -1.203701201e-14)
(0 -6.317650563e-15 -1.076392646e-14)
(0 -5.496051642e-15 -9.631473048e-15)
(0 -4.773319453e-15 -8.628209626e-15)
(0 -4.135599805e-15 -7.743315412e-15)
(0 -3.570848706e-15 -6.96672984e-15)
(0 -3.068558784e-15 -6.289235931e-15)
(0 -2.619521898e-15 -5.702503857e-15)
(0 -2.215623422e-15 -5.19910671e-15)
(0 -1.849663741e-15 -4.772517709e-15)
(0 -1.51520281e-15 -4.41709577e-15)
(0 -1.206423958e-15 -4.128064717e-15)
(0 -9.180134852e-16 -3.901490012e-15)
(0 -6.45052993e-16 -3.734255886e-15)
(0 -3.82922205e-16 -3.624044977e-15)
(0 -1.27001225e-16 -3.569321948e-15)
(0 0.1430164922 -0.002585812578)
(0 0.0655569549 -0.09275954386)
(0 -0.3191680594 -0.7089326746)
(0 -0.7646555695 -1.578483827)
(0 -0.9261546832 -2.049595809)
(0 -0.6485770721 -1.637146994)
(0 -0.09371408723 -0.534541019)
(0 0.00320268471 -0.03178647569)
(0 -7.877706374e-14 -7.842629998e-16)
(0 -1.553255542e-13 -1.602507746e-14)
(0 -1.49357298e-13 -3.03396756e-14)
(0 -1.407421156e-13 -4.254822103e-14)
(0 -1.300771427e-13 -5.212261685e-14)
(0 -1.1823609e-13 -5.892913405e-14)
(0 -1.059906837e-13 -6.312184599e-14)
(0 -9.394312132e-14 -6.502919025e-14)
(0 -8.251503375e-14 -6.50588303e-14)
(0 -7.196715169e-14 -6.362971889e-14)
(0 -6.243181574e-14 -6.113018251e-14)
(0 -5.394731254e-14 -5.789646017e-14)
(0 -4.648831839e-14 -5.420534236e-14)
(0 -3.999025588e-14 -5.027546462e-14)
(0 -3.436738801e-14 -4.627322738e-14)
(0 -2.95254422e-14 -4.232065635e-14)
(0 -2.536988412e-14 -3.850357213e-14)
(0 -2.181095159e-14 -3.487918098e-14)
(0 -1.876639878e-14 -3.148268001e-14)
(0 -1.616269905e-14 -2.833275964e-14)
(0 -1.393526243e-14 -2.543604519e-14)
(0 -1.202806248e-14 -2.279059546e-14)
(0 -1.039294206e-14 -2.03886036e-14)
(0 -8.988774566e-15 -1.821844522e-14)
(0 -7.780591471e-15 -1.626620556e-14)
(0 -6.738741461e-15 -1.451679875e-14)
(0 -5.838116363e-15 -1.295477244e-14)
(0 -5.057459659e-15 -1.156487337e-14)
(0 -4.378761369e-15 -1.033243331e-14)
(0 -3.786736129e-15 -9.243622028e-15)
(0 -3.268377556e-15 -8.285603071e-15)
(0 -2.812580359e-15 -7.446619762e-15)
(0 -2.409821239e-15 -6.71603219e-15)
(0 -2.051889968e-15 -6.084320793e-15)
(0 -1.731662699e-15 -5.543068197e-15)
(0 -1.442910459e-15 -5.084927947e-15)
(0 -1.180136618e-15 -4.703586511e-15)
(0 -9.384379801e-16 -4.393723189e-15)
(0 -7.133848925e-16 -4.150971316e-15)
(0 -5.009164031e-16 -3.971883142e-15)
(0 -2.972475607e-16 -3.853900128e-15)
(0 -9.857722931e-17 -3.795329794e-15)
(0 0.1505952695 0.01231171038)
(0 0.1575043864 0.03964561116)
(0 -0.04897391117 -0.2954259882)
(0 -0.5320550597 -1.196640876)
(0 -0.8743728069 -2.018165419)
(0 -0.776227438 -2.001897372)
(0 -0.2403963801 -0.9813144838)
(0 0.00643886622 -0.06548945643)
(0 -8.723615376e-14 -1.123476102e-15)
(0 -1.718699031e-13 -2.073204431e-14)
(0 -1.640474678e-13 -3.893264689e-14)
(0 -1.526582512e-13 -5.394878337e-14)
(0 -1.388559091e-13 -6.517875644e-14)
(0 -1.239383208e-13 -7.262289895e-14)
(0 -1.08942257e-13 -7.666323529e-14)
(0 -9.460229413e-14 -7.787136354e-14)
(0 -8.137553199e-14 -7.686952319e-14)
(0 -6.949680539e-14 -7.424516113e-14)
(0 -5.90399443e-14 -7.050752897e-14)
(0 -4.997225101e-14 -6.607259914e-14)
(0 -4.219742229e-14 -6.126473393e-14)
(0 -3.55866366e-14 -5.632685084e-14)
(0 -2.999953729e-14 -5.143382917e-14)
(0 -2.529742213e-14 -4.670614666e-14)
(0 -2.135082779e-14 -4.222222988e-14)
(0 -1.804330633e-14 -3.802891524e-14)
(0 -1.52727512e-14 -3.414992702e-14)
(0 -1.295124016e-14 -3.059253393e-14)
(0 -1.100405333e-14 -2.735264892e-14)
(0 -9.368294848e-15 -2.441865778e-14)
(0 -7.991385064e-15 -2.177424177e-14)
(0 -6.829579515e-15 -1.940042219e-14)
(0 -5.846599279e-15 -1.727701406e-14)
(0 -5.012411233e-15 -1.538363757e-14)
(0 -4.302169247e-15 -1.370040296e-14)
(0 -3.695311427e-15 -1.220835732e-14)
(0 -3.174800297e-15 -1.088976006e-14)
(0 -2.726489214e-15 -9.728236945e-15)
(0 -2.33859754e-15 -8.708849738e-15)
(0 -2.001277826e-15 -7.818108586e-15)
(0 -1.706259815e-15 -7.043947002e-15)
(0 -1.446557905e-15 -6.375673814e-15)
(0 -1.216230576e-15 -5.80391241e-15)
(0 -1.010182054e-15 -5.320534644e-15)
(0 -8.239980528e-16 -4.918594602e-15)
(0 -6.538087633e-16 -4.592265853e-15)
(0 -4.961734379e-16 -4.336784705e-15)
(0 -3.479818056e-16 -4.148401139e-15)
(0 -2.063688565e-16 -4.024338578e-15)
(0 -6.843089036e-17 -3.962763209e-15)
(0 0.1766372552 0.01107645795)
(0 0.1806453792 0.06661733925)
(0 0.1441893437 -0.001715871492)
(0 -0.2635520614 -0.7331046981)
(0 -0.7419955348 -1.795286936)
(0 -0.8807825416 -2.240685198)
(0 -0.4495111859 -1.474607777)
(0 0.007808979346 -0.1769008237)
(0 -9.851970856e-14 -1.050377127e-15)
(0 -1.936597443e-13 -2.720881018e-14)
(0 -1.825740371e-13 -5.070591952e-14)
(0 -1.669882252e-13 -6.913249964e-14)
(0 -1.487512582e-13 -8.201881779e-14)
(0 -1.297205688e-13 -8.971952099e-14)
(0 -1.112391483e-13 -9.303657818e-14)
(0 -9.414940922e-14 -9.292367834e-14)
(0 -7.888883134e-14 -9.030312804e-14)
(0 -6.560515747e-14 -8.597433944e-14)
(0 -5.425925376e-14 -8.058263097e-14)
(0 -4.47045175e-14 -7.462208068e-14)
(0 -3.674257009e-14 -6.845448366e-14)
(0 -3.015935112e-14 -6.233364777e-14)
(0 -2.474668383e-14 -5.642930224e-14)
(0 -2.03138429e-14 -5.084802938e-14)
(0 -1.66926527e-14 -4.565040126e-14)
(0 -1.373864873e-14 -4.086440555e-14)
(0 -1.133001747e-14 -3.649563589e-14)
(0 -9.365420951e-15 -3.2534838e-14)
(0 -7.761386279e-15 -2.896338253e-14)
(0 -6.449655334e-15 -2.57571585e-14)
(0 -5.37470647e-15 -2.288928977e-14)
(0 -4.491546855e-15 -2.033198892e-14)
(0 -3.763806846e-15 -1.80577887e-14)
(0 -3.162130355e-15 -1.604033005e-14)
(0 -2.662836115e-15 -1.425483866e-14)
(0 -2.246816763e-15 -1.267838629e-14)
(0 -1.898640995e-15 -1.129000572e-14)
(0 -1.605825807e-15 -1.007070895e-14)
(0 -1.358249197e-15 -9.00344347e-15)
(0 -1.147677623e-15 -8.073011203e-15)
(0 -9.673864678e-16 -7.265967084e-15)
(0 -8.11855376e-16 -6.570509047e-15)
(0 -6.765235286e-16 -5.976367312e-15)
(0 -5.5759265e-16 -5.474698258e-15)
(0 -4.518678267e-16 -5.05798632e-15)
(0 -3.566280837e-16 -4.719956082e-15)
(0 -2.695201784e-16 -4.455495878e-15)
(0 -1.884702755e-16 -4.260593648e-15)
(0 -1.116096308e-16 -4.132285453e-15)
(0 -3.700186086e-17 -4.068616812e-15)
(0 0.2146489776 0.01628282517)
(0 0.2020406606 0.06326998414)
(0 0.2277063859 0.1203686773)
(0 0.003933737817 -0.2732291967)
(0 -0.5219835863 -1.392712941)
(0 -0.9411148193 -2.301745213)
(0 -0.6964062211 -1.962213054)
(0 0.004244789391 -0.417789661)
(0 -1.137911735e-13 -2.725029799e-15)
(0 -2.22614619e-13 -3.718638048e-14)
(0 -2.059711573e-13 -6.75451134e-14)
(0 -1.839711495e-13 -8.985236164e-14)
(0 -1.594429305e-13 -1.040422558e-13)
(0 -1.349560811e-13 -1.111990277e-13)
(0 -1.121464143e-13 -1.128400326e-13)
(0 -9.186884398e-14 -1.104842564e-13)
(0 -7.442619309e-14 -1.054457407e-13)
(0 -5.977630832e-14 -9.876719336e-14)
(0 -4.768768554e-14 -9.122723605e-14)
(0 -3.78441037e-14 -8.337914895e-14)
(0 -2.990898937e-14 -7.55978928e-14)
(0 -2.356145518e-14 -6.812427025e-14)
(0 -1.85139189e-14 -6.110193292e-14)
(0 -1.451852115e-14 -5.46064305e-14)
(0 -1.136720396e-14 -4.866705242e-14)
(0 -8.888540959e-15 -4.328274429e-14)
(0 -6.94318365e-15 -3.843342007e-14)
(0 -5.418986802e-15 -3.408782729e-14)
(0 -4.226373824e-15 -3.020889872e-14)
(0 -3.294202088e-15 -2.67573087e-14)
(0 -2.56621548e-15 -2.369376849e-14)
(0 -1.998078455e-15 -2.098044969e-14)
(0 -1.554940409e-15 -1.858181409e-14)
(0 -1.20946119e-15 -1.646504625e-14)
(0 -9.402254901e-16 -1.460022578e-14)
(0 -7.304784863e-16 -1.29603338e-14)
(0 -5.671229546e-16 -1.152115814e-14)
(0 -4.399269638e-16 -1.026114062e-14)
(0 -3.408997946e-16 -9.16119546e-15)
(0 -2.638014391e-16 -8.204517691e-15)
(0 -2.037576586e-16 -7.376393655e-15)
(0 -1.569581332e-16 -6.664021081e-15)
(0 -1.204197864e-16 -6.056343126e-15)
(0 -9.180106185e-17 -5.543898787e-15)
(0 -6.92558771e-17 -5.11869075e-15)
(0 -5.13183216e-17 -4.77407101e-15)
(0 -3.6811004e-17 -4.504644065e-15)
(0 -2.477138089e-17 -4.306187303e-15)
(0 -1.439202029e-17 -4.175588083e-15)
(0 -4.762249133e-18 -4.110797031e-15)
(0 0.2582350509 0.02227926808)
(0 0.2465594223 0.06473315488)
(0 0.2610810213 0.1446266663)
(0 0.2147627357 0.08228530424)
(0 -0.212672788 -0.8515522689)
(0 -0.912021854 -2.136515961)
(0 -0.9365329384 -2.383704315)
(0 -0.007076557853 -0.8328761854)
(0 -1.341645146e-13 -6.482977912e-15)
(0 -2.606543789e-13 -5.310586427e-14)
(0 -2.352400182e-13 -9.242812094e-14)
(0 -2.034853676e-13 -1.186838301e-13)
(0 -1.700979243e-13 -1.330966436e-13)
(0 -1.385183456e-13 -1.381942871e-13)
(0 -1.10524377e-13 -1.366412892e-13)
(0 -8.67551173e-14 -1.307289285e-13)
(0 -6.717176827e-14 -1.222297045e-13)
(0 -5.138665279e-14 -1.124225836e-13)
(0 -3.887120934e-14 -1.021808625e-13)
(0 -2.907517426e-14 -9.207005724e-14)
(0 -2.14876914e-14 -8.243415437e-14)
(0 -1.566339124e-14 -7.34639483e-14)
(0 -1.122884408e-14 -6.524796027e-14)
(0 -7.878962403e-15 -5.780885924e-14)
(0 -5.36896649e-15 -5.112872905e-14)
(0 -3.505016382e-15 -4.516615516e-14)
(0 -2.13510048e-15 -3.986750212e-14)
(0 -1.140899602e-15 -3.517416388e-14)
(0 -4.308676933e-16 -3.10270764e-14)
(0 6.547489867e-17 -2.736940202e-14)
(0 4.021525461e-16 -2.414801456e-14)
(0 6.204075425e-16 -2.131421386e-14)
(0 7.515965892e-16 -1.882395746e-14)
(0 8.194579617e-16 -1.663780081e-14)
(0 8.418763418e-16 -1.472067058e-14)
(0 8.32250875e-16 -1.304155193e-14)
(0 8.00552183e-16 -1.157314028e-14)
(0 7.541368704e-16 -1.029148875e-14)
(0 6.9837373e-16 -9.175669829e-15)
(0 6.371241812e-16 -8.207461116e-15)
(0 5.731101427e-16 -7.371060266e-15)
(0 5.081951531e-16 -6.652830742e-15)
(0 4.435987655e-16 -6.041078234e-15)
(0 3.800597264e-16 -5.525856492e-15)
(0 3.1795995e-16 -5.098800847e-15)
(0 2.574186014e-16 -4.752987503e-15)
(0 1.983635285e-16 -4.482816742e-15)
(0 1.405857061e-16 -4.283918322e-15)
(0 8.378064171e-17 -4.153077605e-15)
(0 2.778919179e-17 -4.088181218e-15)
(0 0.3043164971 0.02483828427)
(0 0.3003763817 0.0725532609)
(0 0.2941612453 0.1315229882)
(0 0.3209994179 0.2321282207)
(0 0.1493094024 -0.2624724681)
(0 -0.7379565878 -1.708063564)
(0 -1.108844479 -2.654197472)
(0 -0.02597146426 -1.442515684)
(0 -1.632139545e-13 -1.359184816e-14)
(0 -3.125392188e-13 -7.989848169e-14)
(0 -2.715491232e-13 -1.303650575e-13)
(0 -2.246396721e-13 -1.59351662e-13)
(0 -1.789533875e-13 -1.714655003e-13)
(0 -1.385007267e-13 -1.718420443e-13)
(0 -1.046810558e-13 -1.648044974e-13)
(0 -7.745725931e-14 -1.535629296e-13)
(0 -5.611984818e-14 -1.40323593e-13)
(0 -3.972746633e-14 -1.265141131e-13)
(0 -2.733515915e-14 -1.130046813e-13)
(0 -1.809739553e-14 -1.002868295e-13)
(0 -1.130288044e-14 -8.860523093e-14)
(0 -6.375261084e-15 -7.804973794e-14)
(0 -2.858829835e-15 -6.861730389e-14)
(0 -3.992899212e-16 -6.02524349e-14)
(0 1.275500113e-15 -5.287291074e-14)
(0 2.372685971e-15 -4.638567027e-14)
(0 3.048807634e-15 -4.069627188e-14)
(0 3.421438917e-15 -3.571423877e-14)
(0 3.578388035e-15 -3.135582263e-14)
(0 3.584859749e-15 -2.754518647e-14)
(0 3.488972681e-15 -2.42146508e-14)
(0 3.325978645e-15 -2.130441092e-14)
(0 3.121472639e-15 -1.876197945e-14)
(0 2.893825695e-15 -1.654150885e-14)
(0 2.656023384e-15 -1.460308545e-14)
(0 2.417051816e-15 -1.291204651e-14)
(0 2.182940229e-15 -1.14383474e-14)
(0 1.957543483e-15 -1.015599096e-14)
(0 1.743127839e-15 -9.042522105e-15)
(0 1.540808124e-15 -8.078586066e-15)
(0 1.350872716e-15 -7.247546055e-15)
(0 1.173023898e-15 -6.535154864e-15)
(0 1.006554463e-15 -5.929274885e-15)
(0 8.504763255e-16 -5.419641114e-15)
(0 7.036131122e-16 -4.997662238e-15)
(0 5.64665783e-16 -4.656255481e-15)
(0 4.32258177e-16 -4.389711516e-15)
(0 3.04967756e-16 -4.193586344e-15)
(0 1.813450833e-16 -4.064617682e-15)
(0 6.013413781e-17 -4.000663881e-15)
(0 0.3545432835 0.02489441937)
(0 0.3539826014 0.07770216405)
(0 0.3547576279 0.123555275)
(0 0.3521119345 0.234886404)
(0 0.4658529692 0.200421753)
(0 -0.3878180533 -1.03167317)
(0 -1.148863257 -2.665551613)
(0 -0.04677190549 -2.21440822)
(0 -2.060306874e-13 -3.307938866e-14)
(0 -3.840763412e-13 -1.287200662e-13)
(0 -3.146931985e-13 -1.897673269e-13)
(0 -2.445858104e-13 -2.168895761e-13)
(0 -1.825883066e-13 -2.215756845e-13)
(0 -1.318573427e-13 -2.12909446e-13)
(0 -9.224526237e-14 -1.971767416e-13)
(0 -6.227421288e-14 -1.783985921e-13)
(0 -4.012295178e-14 -1.589904126e-13)
(0 -2.406774108e-14 -1.403074889e-13)
(0 -1.264392571e-14 -1.230381552e-13)
(0 -4.675723909e-15 -1.074681234e-13)
(0 7.494001483e-16 -9.365066702e-14)
(0 4.324535808e-15 -8.151273136e-14)
(0 6.568458967e-15 -7.091921643e-14)
(0 7.865430745e-15 -6.171072025e-14)
(0 8.497798138e-15 -5.372481589e-14)
(0 8.671622479e-15 -4.680732372e-14)
(0 8.53633102e-15 -4.081764291e-14)
(0 8.199549645e-15 -3.563065735e-14)
(0 7.738184607e-15 -3.113674828e-14)
(0 7.206646725e-15 -2.724083126e-14)
(0 6.642928098e-15 -2.386095486e-14)
(0 6.073078901e-15 -2.092676657e-14)
(0 5.514498659e-15 -1.837801107e-14)
(0 4.978351954e-15 -1.616314364e-14)
(0 4.471338688e-15 -1.423809298e-14)
(0 3.996988929e-15 -1.25651812e-14)
(0 3.556607725e-15 -1.111219434e-14)
(0 3.149962165e-15 -9.851590301e-15)
(0 2.775778627e-15 -8.759828172e-15)
(0 2.432100231e-15 -7.816803245e-15)
(0 2.116541345e-15 -7.00537268e-15)
(0 1.826466323e-15 -6.310958616e-15)
(0 1.559112515e-15 -5.721217165e-15)
(0 1.311672374e-15 -5.225763503e-15)
(0 1.081345583e-15 -4.815944846e-15)
(0 8.653693237e-16 -4.484654546e-15)
(0 6.610326653e-16 -4.226181788e-15)
(0 4.656795392e-16 -4.036092456e-15)
(0 2.767031051e-16 -3.911137696e-15)