/*--------------------------------*- C++ -*----------------------------------*\
  =========                 |
  \\      /  F ield         | OpenFOAM: The Open Source CFD Toolbox
   \\    /   O peration     | Website:  https://openfoam.org
    \\  /    A nd           | Version:  6
     \\/     M anipulation  |
\*---------------------------------------------------------------------------*/
FoamFile
{
    version     2.0;
    format      ascii;
    class       volScalarField;
    location    "0.14";
    object      ViscousDissipation;
}
// * * * * * * * * * * * * * * * * * * * * * * * * * * * * * * * * * * * * * //

dimensions      [1 -1 -3 0 0 0 0];

internalField   nonuniform List<scalar> 
2500
(
27.80376976
18.15484458
1.558420865
0.2525485914
0.1036239183
0.5416108561
0.5963826123
0.01913003016
0.01473157043
6.689748748e-24
7.386163222e-26
1.460430248e-25
2.355695308e-25
3.287159793e-25
4.150801218e-25
4.864909515e-25
5.377834463e-25
5.668894698e-25
5.744137801e-25
5.629180616e-25
5.361253151e-25
4.982010115e-25
4.531979935e-25
4.046913909e-25
3.555880378e-25
3.080730129e-25
2.636497854e-25
2.232342561e-25
1.872715695e-25
1.558542314e-25
1.288286833e-25
1.05884135e-25
8.662203174e-26
7.060730457e-26
5.740397561e-26
4.659818503e-26
3.781164552e-26
3.070817176e-26
2.499545823e-26
2.042379543e-26
1.678297945e-26
1.389830752e-26
1.162626664e-26
9.850307823e-27
8.476944133e-27
7.432304762e-27
6.659212789e-27
6.114831325e-27
5.76898961e-27
5.962937605e-27
5.270499832
10.16795518
4.193052734
0.7610014115
0.09963138266
0.1264792541
0.1583284692
0.07362775045
0.05037665746
6.829008157e-24
1.100730454e-25
1.815532612e-25
2.702127672e-25
3.619692843e-25
4.463527731e-25
5.152354442e-25
5.635806638e-25
5.89496621e-25
5.937739208e-25
5.791392528e-25
5.494416761e-25
5.089276111e-25
4.616885515e-25
4.113039914e-25
3.606607486e-25
3.11909004e-25
2.665102838e-25
2.253372418e-25
1.887942059e-25
1.569373823e-25
1.295823002e-25
1.063927096e-25
8.69496352e-26
7.080198021e-26
5.750140902e-26
4.662467521e-26
3.778645077e-26
3.064532513e-26
2.490514962e-26
2.031340953e-26
1.665786645e-26
1.37623499e-26
1.14822926e-26
9.700390219e-27
8.32261349e-27
7.274693284e-27
6.499125341e-27
5.952670381e-27
5.60569414e-27
8.654545003e-27
1.082057166
6.142944912
7.527236388
2.805313012
0.3604501205
0.02368336189
0.08413052925
0.07269566107
0.0140927397
7.117680675e-24
1.871159418e-25
2.572216069e-25
3.438015392e-25
4.32279119e-25
5.121368849e-25
5.753892308e-25
6.172964644e-25
6.36346619e-25
6.337168935e-25
6.124682296e-25
5.766980707e-25
5.308060563e-25
4.789500424e-25
4.247070538e-25
3.709136691e-25
3.196416694e-25
2.722618529e-25
2.295551823e-25
1.918405546e-25
1.590988888e-25
1.310820425e-25
1.074016085e-25
8.759696327e-26
7.118443936e-26
5.769066624e-26
4.667343172e-26
3.773321454e-26
3.051809189e-26
2.472419744e-26
2.00933926e-26
1.640936669e-26
1.34930163e-26
1.119767133e-26
9.404525801e-27
8.018481722e-27
6.964512713e-27
6.184587089e-27
5.635148633e-27
5.286313052e-27
1.387783277e-26
0.3478176911
1.472772162
7.327051232
6.918561257
1.94046427
0.1859368014
0.1081145556
0.02589171077
0.1037041594
7.574864729e-24
3.165125031e-25
3.83677951e-25
4.658692605e-25
5.479454762e-25
6.194299636e-25
6.726638822e-25
7.034476227e-25
7.109041694e-25
6.968241014e-25
6.64775634e-25
6.192146334e-25
5.647445894e-25
5.055921496e-25
4.453001568e-25
3.866026303e-25
3.314311821e-25
2.810027951e-25
2.359475824e-25
1.964466563e-25
1.623612486e-25
1.333431065e-25
1.089225332e-25
8.857445791e-26
7.176511207e-26
5.798280962e-26
4.675643633e-26
3.766492216e-26
3.034043617e-26
2.446746657e-26
1.977941066e-26
1.605384345e-26
1.310726772e-26
1.078987047e-26
8.980607293e-27
7.582793783e-27
6.520288041e-27
5.73428844e-27
5.180735682e-27
4.829375861e-27
2.132144013e-26
1.824499371
0.1191184281
3.777223221
8.73612173
5.98154696
0.8730927228
0.01308201751
0.007653841261
0.1400895569
8.246089508e-24
5.189033289e-25
5.796239046e-25
6.529977006e-25
7.232048806e-25
7.800626672e-25
8.165786754e-25
8.294578139e-25
8.187879777e-25
7.872287994e-25
7.390208793e-25
6.790564053e-25
6.121489893e-25
5.425492433e-25
4.736900317e-25
4.081127618e-25
3.475167691e-25
2.928789112e-25
2.446022132e-25
2.026655115e-25
1.667575779e-25
1.36387991e-25
1.109729562e-25
8.98978105e-26
7.255969633e-26
5.839445028e-26
4.689160498e-26
3.760089793e-26
3.01330427e-26
2.415688244e-26
1.939448318e-26
1.561526031e-26
1.262987016e-26
1.028432932e-26
8.454631118e-27
7.041997124e-27
5.968815205e-27
5.175263557e-27
4.616589548e-27
4.262006909e-27
3.05418923e-26
3.682172984
2.697012363
0.4597450182
6.211051828
9.940840196
2.87437953
0.01044824704
0.01104039553
0.2264722613
9.193289739e-24
8.285820028e-25
8.759361066e-25
9.321426983e-25
9.807914644e-25
1.012570085e-24
1.021759701e-24
1.006515054e-24
9.683078779e-25
9.109336191e-25
8.39426885e-25
7.591200014e-25
6.749579058e-25
5.910877303e-25
5.106839869e-25
4.359459747e-25
3.682024884e-25
3.080696087e-25
2.556223844e-25
2.105557292e-25
1.723215701e-25
1.402375955e-25
1.135681694e-25
9.158079094e-26
7.358262681e-26
5.894174538e-26
4.70972272e-26
3.756161951e-26
2.991845286e-26
2.381684573e-26
1.896464042e-26
1.512105029e-26
1.208944838e-26
9.710673357e-27
7.857052205e-27
6.42722199e-27
5.3417595e-27
4.539585756e-27
3.975089692e-27
3.616832547e-27
4.098660127e-26
4.300769178
6.694247363
0.6067381509
2.23775835
9.788408208
6.733550758
0.4813683886
0.008159147564
0.4870151189
1.050950132e-23
1.302231008e-24
1.322976324e-24
1.346415471e-24
1.356257468e-24
1.345252455e-24
1.310001678e-24
1.250895314e-24
1.1712751e-24
1.076282906e-24
9.71741247e-25
8.632695816e-25
7.557087321e-25
6.528352755e-25
5.573016698e-25
4.707255888e-25
3.938598183e-25
3.267906554e-25
2.691305679e-25
2.201860337e-25
1.790926281e-25
1.449166635e-25
1.1672676e-25
9.364054201e-26
7.485204037e-26
5.964494404e-26
4.739604553e-26
3.757231546e-26
2.972418733e-26
2.34769014e-26
1.852116948e-26
1.460397515e-26
1.151999761e-26
9.103919155e-27
7.223723575e-27
5.774996617e-27
4.676183238e-27
3.86472827e-27
3.294015368e-27
2.931847388e-27
5.20257742e-26
4.345084362
8.557079651
4.197636662
0.05639728372
6.739062793
10.93237125
2.171132346
0.0007802027431
0.9243318074
1.2344923e-23
2.035167631e-24
2.003635741e-24
1.965046237e-24
1.905131618e-24
1.821032925e-24
1.713396045e-24
1.585877807e-24
1.444115907e-24
1.294573993e-24
1.143548574e-24
9.964807344e-25
8.575923735e-25
7.297922005e-25
6.147679781e-25
5.131833528e-25
4.249145424e-25
3.49283104e-25
2.852598141e-25
2.316288984e-25
1.87111218e-25
1.50450359e-25
1.204679968e-25
9.609546415e-26
7.638794042e-26
6.052668415e-26
4.781359082e-26
3.76612823e-26
2.958101292e-26
2.31699398e-26
1.809874443e-26
1.410018534e-26
1.095887804e-26
8.502409998e-27
6.593780496e-27
5.125087021e-27
4.012346335e-27
3.191327734e-27
2.614278056e-27
2.248145958e-27
6.298884861e-26
1.228530185
6.320085868
8.36597238
1.530005179
2.609570622
13.00094531
5.682741708
0.09632714708
1.108283473
1.495736342e-23
3.191386761e-24
3.056907263e-24
2.900752019e-24
2.714802903e-24
2.505108692e-24
2.278999967e-24
2.044450657e-24
1.809355775e-24
1.580820101e-24
1.36462947e-24
1.164986319e-24
9.844948072e-25
8.243274944e-25
6.844931613e-25
5.641372722e-25
4.618276463e-25
3.757986294e-25
3.041432165e-25
2.44953269e-25
1.964139341e-25
1.568608991e-25
1.248094464e-25
9.896340235e-26
7.821067721e-26
6.16105887e-26
4.837678621e-26
3.785843406e-26
2.952140557e-26
2.29305596e-26
1.773368702e-26
1.364738316e-26
1.044488848e-26
7.945809908e-27
6.007565245e-27
4.518362548e-27
3.391522059e-27
2.560959561e-27
1.977669006e-27
1.607660264e-27
7.320394861e-26
0.08937524741
2.468111406
9.464960204
6.138037328
0.1442944086
10.81002594
10.32145572
0.8025662171
1.407276014
1.862313105e-23
5.048090046e-24
4.721219242e-24
4.340578787e-24
3.92432768e-24
3.496894156e-24
3.0756623e-24
2.673007535e-24
2.297501352e-24
1.954633474e-24
1.6473246e-24
1.376389447e-24
1.141000703e-24
9.391433351e-25
7.680301215e-25
6.244541463e-25
5.050664475e-25
4.065788153e-25
3.258996812e-25
2.602150204e-25
2.070271338e-25
1.641632365e-25
1.297639072e-25
1.022593016e-25
8.033898347e-26
6.29194706e-26
4.911219607e-26
3.819352526e-26
2.957771133e-26
2.279315153e-26
1.746196985e-26
1.328274852e-26
1.001612143e-26
7.472896176e-27
5.504365657e-27
3.994488871e-27
2.853652608e-27
2.01376428e-27
1.424465268e-27
1.050754532e-27
8.203829636e-26
0.01991555414
0.4308956729
6.548874851
11.0068509
1.629009005
5.601673594
14.10524601
2.901340235
5.967892458
2.438924016e-23
8.173066586e-24
7.431075582e-24
6.603054826e-24
5.757503287e-24
4.948359528e-24
4.203703199e-24
3.536167469e-24
2.949262271e-24
2.441132967e-24
2.006822235e-24
1.639686884e-24
1.332323815e-24
1.077187748e-24
8.669978171e-25
6.949910599e-25
5.550630886e-25
4.418269924e-25
3.506153146e-25
2.77444786e-25
2.189589263e-25
1.723596325e-25
1.353355321e-25
1.059922194e-25
8.278747074e-26
6.447306964e-26
5.004386312e-26
3.869401038e-26
2.97799882e-26
2.278970409e-26
1.731697975e-26
1.304066041e-26
9.707646185e-27
7.11920892e-27
5.120036273e-27
3.589525687e-27
2.434928075e-27
1.586012315e-27
9.909846889e-28
6.137743355e-28
8.893729614e-26
0.05167110379
0.0108791736
2.605988099
12.48032422
7.394173671
0.9649540439
15.64173648
7.24402674
42.90046282
3.382351234e-23
1.378825919e-23
1.200871641e-23
1.024019864e-23
8.576311455e-24
7.091090403e-24
5.807932143e-24
4.722594955e-24
3.817865256e-24
3.071664046e-24
2.461224762e-24
1.965115603e-24
1.5641156e-24
1.24149016e-24
9.829584309e-25
7.765101814e-25
6.121580086e-25
4.816717314e-25
3.783201576e-25
2.966331179e-25
2.321895354e-25
1.814331531e-25
1.415151666e-25
1.101617211e-25
8.556361527e-26
6.628535836e-26
5.119078112e-26
3.938259943e-26
3.015360011e-26
2.2947414e-26
1.732713476e-26
1.295031651e-26
9.549130091e-27
6.914674267e-27
4.884623993e-27
3.333555284e-27
2.16541811e-27
1.307738687e-27
7.072233703e-28
3.266861166e-28
9.345993646e-26
0.06814028037
0.07509990431
0.4360653873
9.05691241
14.93772553
1.137934725
13.85399947
14.44228049
238.4777379
4.879826035e-23
2.399898774e-23
1.990758902e-23
1.618682858e-23
1.295870874e-23
1.027316549e-23
8.09362949e-24
6.351110094e-24
4.970863785e-24
3.88393639e-24
3.031164595e-24
2.363700397e-24
1.842091809e-24
1.434892197e-24
1.117236698e-24
8.695626135e-25
6.765272342e-25
5.261219813e-25
4.089605828e-25
3.177133192e-25
2.466603212e-25
1.913403049e-25
1.482750699e-25
1.147537955e-25
8.866435751e-26
6.836153717e-26
5.25641253e-26
4.027463593e-26
3.071669487e-26
2.328623814e-26
1.751349547e-26
1.303339516e-26
9.562545012e-27
6.881350239e-27
4.820148692e-27
3.24849324e-27
2.066907984e-27
1.200599615e-27
5.947278342e-28
2.109598087e-28
9.530821875e-26
0.08128113579
0.12564711
0.02398796786
3.652237192
19.24075954
9.036599181
8.712040684
24.12993276
947.8843979
7.517134933e-23
4.322230123e-23
3.38379438e-23
2.603963128e-23
1.98189961e-23
1.500762291e-23
1.134381298e-23
8.575355723e-24
6.490294197e-24
4.920936225e-24
3.738645581e-24
2.846352686e-24
2.171413549e-24
1.659649892e-24
1.270674284e-24
9.743405071e-25
7.480946377e-25
5.75015279e-25
4.423685518e-25
3.405428339e-25
2.622620864e-25
2.02003258e-25
1.555633554e-25
1.197365615e-25
9.207254838e-26
7.069493102e-26
5.41644416e-26
4.13754918e-26
3.147775594e-26
2.381657326e-26
1.788755376e-26
1.33019393e-26
9.760135044e-27
7.031468002e-27
4.938708256e-27
3.346247793e-27
2.151103017e-27
1.276112846e-27
6.648622043e-28
2.778538471e-28
9.434853252e-26
0.09653809887
0.1192349037
0.1693279856
0.3971540103
15.5416719
23.36162779
3.022006158
33.68602727
2845.238253
1.2653629e-22
8.151346284e-23
5.902302296e-23
4.252664776e-23
3.057560855e-23
2.202587659e-23
1.593161026e-23
1.158321646e-23
8.469202667e-24
6.227694072e-24
4.60472045e-24
3.422372399e-24
2.555775545e-24
1.916898041e-24
1.443322108e-24
1.09050277e-24
8.264338486e-25
6.279624585e-25
4.782300576e-25
3.648847345e-25
2.788236984e-25
2.133023748e-25
1.632986798e-25
1.250561824e-25
9.575359057e-26
7.326409345e-26
5.597907166e-26
4.267823537e-26
3.243346766e-26
2.453728895e-26
1.844941222e-26
1.375666467e-26
1.014283802e-26
7.365952166e-27
5.241083961e-27
3.62739708e-27
2.418364936e-27
1.534440789e-27
9.176261166e-28
5.272560807e-28
9.062326604e-26
0.1073320965
0.1058023477
0.2039134075
0.1222736753
6.604820694
34.78123036
4.139738053
37.85884781
6707.274116
2.303769953e-22
1.594143166e-22
1.049133888e-22
7.00780518e-23
4.731271389e-23
3.230584599e-23
2.231255445e-23
1.558412849e-23
1.100172037e-23
7.844856193e-24
5.645663862e-24
4.097272182e-24
2.996203174e-24
2.20599704e-24
1.634089925e-24
1.216988428e-24
9.106690601e-25
6.842946599e-25
5.160563454e-25
3.903915542e-25
2.9610248e-25
2.25070031e-25
1.713658953e-25
1.306335389e-25
9.96527252e-26
7.603050143e-26
5.798014993e-26
4.416187254e-26
3.356716502e-26
2.543436071e-26
1.918657966e-26
1.438589946e-26
1.069935183e-26
7.873597361e-27
5.716011492e-27
4.080539564e-27
2.857127298e-27
1.96385715e-27
1.34115928e-27
9.472133461e-28
8.435146634e-26
0.1054495859
0.107428988
0.1328442412
0.3877954513
0.868525362
29.52998854
19.05628769
32.08113869
12734.32855
4.251388495e-22
3.165605786e-22
1.874652602e-22
1.153155865e-22
7.280569212e-23
4.701242402e-23
3.097166974e-23
2.077533181e-23
1.416389938e-23
9.798377424e-24
6.86758744e-24
4.870012194e-24
3.489648918e-24
2.523826869e-24
1.840393947e-24
1.351841936e-24
9.993888354e-25
7.430207872e-25
5.551626701e-25
4.165943255e-25
3.137781671e-25
2.37086928e-25
1.796135179e-25
1.363623076e-25
1.036934792e-25
7.893726743e-26
6.012353463e-26
4.579047351e-26
3.484814021e-26
2.648034195e-26
2.007359386e-26
1.516534234e-26
1.140601227e-26
8.53105034e-27
6.340252335e-27
4.682440258e-27
3.444102811e-27
2.541002235e-27
1.912032228e-27
1.514245543e-27
7.591802347e-26
0.09562864608
0.1086327684
0.08518448688
0.2919219154
0.1285700723
14.34039676
42.12073866
17.9927896
19887.20883
7.13376971e-22
6.193398413e-22
3.298949682e-22
1.86581057e-22
1.100924179e-22
6.72493984e-23
4.229740877e-23
2.728090544e-23
1.798479056e-23
1.208589608e-23
8.260040287e-24
5.730003848e-24
4.027597505e-24
2.86414419e-24
2.057865217e-24
1.492084092e-24
1.090591024e-24
8.028052865e-25
5.946601137e-25
4.429000362e-25
3.314524033e-25
2.490821864e-25
1.878539123e-25
1.421091108e-25
1.077777894e-25
8.190928207e-26
6.234901106e-26
4.751346569e-26
3.623204061e-26
2.763487182e-26
2.107263679e-26
1.605877797e-26
1.222759922e-26
9.303696108e-27
7.079548667e-27
5.399043403e-27
4.14534317e-27
3.231979793e-27
2.596370467e-27
2.19448772e-27
6.585161731e-26
0.0832439
0.09553634076
0.08176287044
0.1410642757
0.5161343151
3.682175304
59.96589195
4.433797647
25909.79818
1.190015562e-21
1.146325499e-21
5.552367068e-22
2.907610855e-22
1.612091099e-22
9.35613238e-23
5.638260123e-23
3.507048401e-23
2.241256737e-23
1.466241195e-23
9.789920448e-24
6.654535993e-24
4.595000056e-24
3.217160008e-24
2.280196728e-24
1.633667566e-24
1.181678618e-24
8.619765548e-25
6.334659997e-25
4.686006171e-25
3.486556283e-25
2.607383982e-25
1.958669924e-25
1.477163104e-25
1.117882308e-25
8.485511543e-26
6.458202212e-26
4.926729139e-26
3.766251191e-26
2.88463363e-26
2.213522993e-26
1.701981321e-26
1.311911431e-26
1.014747453e-26
7.890474719e-27
6.187353614e-27
4.918144779e-27
3.994282134e-27
3.35179395e-27
2.945638944e-27
5.479247946e-26
0.06996615521
0.07620313736
0.09005569734
0.0810490408
0.4025267494
0.6153209022
54.41804493
0.5552232049
28057.08856
2.681149526e-21
1.908272966e-21
8.651464852e-22
4.273152045e-22
2.253884814e-22
1.253480496e-22
7.282115825e-23
4.388504884e-23
2.728663803e-23
1.742975263e-23
1.139759676e-23
7.607453239e-24
5.169909251e-24
3.569508197e-24
2.499208544e-24
1.771554548e-24
1.269524586e-24
9.185748592e-25
6.703374218e-25
4.928958661e-25
3.648627149e-25
2.717024582e-25
2.034079625e-25
1.530077979e-25
1.155925913e-25
8.767084178e-26
6.67370347e-26
5.097849574e-26
3.90741179e-26
3.005468696e-26
2.320499245e-26
1.799459868e-26
1.402848044e-26
1.101156624e-26
8.723114099e-27
6.998107636e-27
5.713716796e-27
4.779455647e-27
4.130080882e-27
3.719624998e-27
4.345182304e-26
0.05503818929
0.05855860963
0.08485458416
0.06760464379
0.1900235945
0.7454822916
40.33208998
6.598174488
24953.20699
6.016437541e-21
2.791344357e-21
1.227371818e-21
5.851839575e-22
2.98174832e-22
1.605832443e-22
9.061385061e-23
5.320563262e-23
3.232815067e-23
2.023447845e-23
1.299709563e-23
8.539858515e-24
5.724145703e-24
3.904748207e-24
2.705193548e-24
1.899943881e-24
1.350617615e-24
9.704449521e-25
7.039301375e-25
5.149312872e-25
3.795177832e-25
2.816023504e-25
2.102191581e-25
1.577977782e-25
1.190507508e-25
9.024571919e-26
6.872245188e-26
5.256813812e-26
4.039641666e-26
3.119528605e-26
2.422132198e-26
1.892538918e-26
1.490001132e-26
1.184179215e-26
9.524404579e-27
7.779076107e-27
6.480449326e-27
5.536343433e-27
4.880391865e-27
4.465810433e-27
3.256550765e-26
0.03839746192
0.04351901124
0.06884555803
0.09022304515
0.08833290896
1.969430152
29.25369194
16.82458577
19104.65357
9.418164731e-21
3.651957144e-21
1.592975986e-21
7.463047145e-22
3.722056604e-22
1.960171416e-22
1.082361484e-22
6.228336898e-23
3.715601447e-23
2.287712264e-23
1.448155013e-23
9.393332104e-24
6.225193377e-24
4.204478087e-24
2.887570829e-24
2.012655693e-24
1.421289993e-24
1.015372511e-24
7.328815594e-25
5.338497072e-25
3.920672828e-25
2.900691897e-25
2.160454357e-25
1.619020938e-25
1.220234774e-25
9.24693797e-26
7.044675525e-26
5.395723028e-26
4.155891013e-26
3.220350582e-26
2.512373472e-26
1.975468659e-26
1.567840103e-26
1.258448192e-26
1.024191013e-26
8.478758967e-27
7.167548657e-27
6.214674548e-27
5.552825783e-27
5.134532671e-27
2.284506249e-26
0.02180504425
0.02940587981
0.04623979021
0.1171853153
0.04315311537
2.820319434
17.79330215
28.99777645
11602.21378
1.001783797e-20
4.382012633e-21
1.913550031e-21
8.902900394e-22
4.386448723e-22
2.276784416e-22
1.238382961e-22
7.022814253e-23
4.132923066e-23
2.513341421e-23
1.573417847e-23
1.010573225e-23
6.639313516e-24
4.450028923e-24
3.035819765e-24
2.103653426e-24
1.478013895e-24
1.051255434e-24
7.559120635e-25
5.488529218e-25
4.019988617e-25
2.967628092e-25
2.206518801e-25
1.651511591e-25
1.243824004e-25
9.423991155e-26
7.182534275e-26
5.507272673e-26
4.249643692e-26
3.301968553e-26
2.585649506e-26
2.042961708e-26
1.631290299e-26
1.319049525e-26
1.082771619e-26
9.050180306e-27
7.728753149e-27
6.76871951e-27
6.102031544e-27
5.680685202e-27
1.492952327e-26
0.008542491909
0.01802503232
0.02529632366
0.1298343347
0.1028100128
2.83682488
9.666146785
39.25887238
4737.405603
7.973380598e-21
4.896412259e-21
2.147710966e-21
9.97971122e-22
4.887535019e-22
2.515555737e-22
1.35547543e-22
7.614695556e-23
4.441214278e-23
2.678584151e-23
1.664388883e-23
1.061906027e-23
6.935579924e-24
4.624570991e-24
3.140598427e-24
2.16764858e-24
1.517734941e-24
1.07629204e-24
7.719340596e-25
5.592669879e-25
4.088820101e-25
3.013982555e-25
2.238419977e-25
1.674031612e-25
1.260201207e-25
9.54719964e-26
7.278736065e-26
5.585346172e-26
4.315447309e-26
3.359396477e-26
2.637309507e-26
2.090613659e-26
1.676131932e-26
1.361903894e-26
1.12421089e-26
9.45445771e-27
8.125816192e-27
7.160707262e-27
6.490577209e-27
6.067055547e-27
9.341600702e-27
0.001433697318
0.01187220782
0.01480487465
0.1254136711
0.1986905916
2.520904367
7.498885673
44.1298879
572.1826425
5.898143326e-21
5.157084789e-21
2.269910839e-21
1.055315543e-21
5.156599621e-22
2.643979076e-22
1.418326468e-22
7.931139887e-23
4.605240619e-23
2.7660515e-23
1.712300083e-23
1.088813053e-23
7.090198113e-24
4.715305983e-24
3.194878091e-24
2.20070007e-24
1.538196038e-24
1.089160545e-24
7.801544449e-25
5.646027924e-25
4.124053862e-25
3.037699272e-25
2.254741859e-25
1.685559421e-25
1.268592634e-25
9.610415433e-26
7.328175086e-26
5.625537245e-26
4.349376745e-26
3.389048501e-26
2.664012684e-26
2.11526474e-26
1.699341548e-26
1.384092052e-26
1.145669979e-26
9.663824279e-27
8.331447567e-27
7.363704917e-27
6.691785138e-27
6.267131355e-27
6.451467214e-27
0.001433691902
0.01187220172
0.01480486824
0.1254136514
0.198690593
2.520904164
7.498885288
44.12988585
572.1827641
5.898143082e-21
5.157084745e-21
2.269910814e-21
1.055315536e-21
5.156599654e-22
2.643979145e-22
1.418326539e-22
7.931140494e-23
4.605241094e-23
2.766051855e-23
1.712300343e-23
1.08881324e-23
7.090199467e-24
4.715306962e-24
3.194878804e-24
2.200700593e-24
1.538196424e-24
1.089160833e-24
7.801546606e-25
5.646029554e-25
4.1240551e-25
3.037700215e-25
2.254742579e-25
1.685559969e-25
1.26859305e-25
9.610418564e-26
7.328177411e-26
5.625538936e-26
4.349377934e-26
3.389049292e-26
2.664013158e-26
2.115264963e-26
1.699341571e-26
1.384091916e-26
1.145669719e-26
9.663820701e-27
8.331443242e-27
7.363700037e-27
6.691779865e-27
6.267125888e-27
6.450930729e-27
0.008542474446
0.01802501344
0.02529629996
0.1298342972
0.1028100273
2.836824519
9.666147084
39.25886988
4737.405603
7.973379983e-21
4.896412192e-21
2.147710882e-21
9.979710934e-22
4.887535074e-22
2.515555921e-22
1.355475631e-22
7.614697304e-23
4.441215658e-23
2.678585188e-23
1.664389643e-23
1.061906578e-23
6.93558391e-24
4.62457388e-24
3.140600532e-24
2.167650125e-24
1.517736083e-24
1.076292892e-24
7.719347001e-25
5.592674724e-25
4.088823784e-25
3.013985366e-25
2.238422123e-25
1.67403325e-25
1.260202452e-25
9.547209023e-26
7.278743046e-26
5.585351261e-26
4.315450899e-26
3.359398878e-26
2.637310961e-26
2.09061436e-26
1.676132034e-26
1.36190352e-26
1.12421014e-26
9.454447285e-27
8.125803519e-27
7.160692915e-27
6.490561679e-27
6.067039429e-27
9.339996719e-27
0.02180501194
0.02940584559
0.04623974635
0.1171852758
0.04315309348
2.820319343
17.79330314
28.99777789
11602.21342
1.001783799e-20
4.382012349e-21
1.913549821e-21
8.90289963e-22
4.386448683e-22
2.276784654e-22
1.238383258e-22
7.022816943e-23
4.132925228e-23
2.513343062e-23
1.573419058e-23
1.010574107e-23
6.639319916e-24
4.450033575e-24
3.035823163e-24
2.103655926e-24
1.47801575e-24
1.051256821e-24
7.559131086e-25
5.488537144e-25
4.019994659e-25
2.967632713e-25
2.20652234e-25
1.651514299e-25
1.243826068e-25
9.424006759e-26
7.182545929e-26
5.507281208e-26
4.249649753e-26
3.301972646e-26
2.585652029e-26
2.04296298e-26
1.631290573e-26
1.319049006e-26
1.082770473e-26
9.050163945e-27
7.728733019e-27
6.768696568e-27
6.102006612e-27
5.680659273e-27
1.492686824e-26
0.03839741094
0.04351895865
0.06884549943
0.09022300277
0.08833286976
1.969430603
29.25369114
16.82459015
19104.65386
9.418163833e-21
3.65195629e-21
1.592975565e-21
7.463045627e-22
3.72205634e-22
1.960171636e-22
1.082361834e-22
6.22834026e-23
3.715604219e-23
2.287714398e-23
1.448156601e-23
9.39334374e-24
6.225201858e-24
4.204484276e-24
2.887575369e-24
2.012659046e-24
1.42129249e-24
1.015374385e-24
7.328829772e-25
5.338507865e-25
3.920681086e-25
2.900698237e-25
2.160459232e-25
1.619024682e-25
1.220237639e-25
9.246959741e-26
7.044691875e-26
5.395735083e-26
4.155899653e-26
3.220356497e-26
2.512377209e-26
1.975470652e-26
1.567840703e-26
1.258447681e-26
1.024189622e-26
8.478738151e-27
7.16752252e-27
6.214644429e-27
5.552792842e-27
5.134498297e-27
2.28413839e-26
0.05503811358
0.0585585326
0.08485450607
0.06760459803
0.1900236613
0.7454827746
40.33208568
6.598176693
24953.20969
6.01643322e-21
2.791342802e-21
1.22737118e-21
5.851837249e-22
2.981747763e-22
1.605832589e-22
9.061388688e-23
5.320567026e-23
3.232818267e-23
2.023450347e-23
1.299711442e-23
8.539872372e-24
5.724155857e-24
3.904755653e-24
2.705199037e-24
1.899947955e-24
1.350620663e-24
9.704472522e-25
7.039318859e-25
5.149326249e-25
3.795188118e-25
2.816031441e-25
2.102197713e-25
1.577982517e-25
1.190511151e-25
9.024599771e-26
6.872266252e-26
5.256829478e-26
4.039653023e-26
3.119536511e-26
2.422137335e-26
1.892541831e-26
1.490002261e-26
1.184178916e-26
9.524390241e-27
7.779052831e-27
6.480419136e-27
5.536308055e-27
4.880352799e-27
4.465769461e-27
3.256084419e-26
0.06996604717
0.07620301765
0.09005556841
0.08104897007
0.4025267306
0.6153211957
54.41804419
0.5552223928
28057.09326
2.681146607e-21
1.908271083e-21
8.651457437e-22
4.273149137e-22
2.253883976e-22
1.253480543e-22
7.282119326e-23
4.388508843e-23
2.728667271e-23
1.742978014e-23
1.139761759e-23
7.607468693e-24
5.169920635e-24
3.56951659e-24
2.499214764e-24
1.771559192e-24
1.269528082e-24
9.185775128e-25
6.703394514e-25
4.928974284e-25
3.648639236e-25
2.717033964e-25
2.034086919e-25
1.530083647e-25
1.155930303e-25
8.767117983e-26
6.673729251e-26
5.097868945e-26
3.907426019e-26
3.005478789e-26
2.320506005e-26
1.799463939e-26
1.402849947e-26
1.101156785e-26
8.723101798e-27
6.998084332e-27
5.713684946e-27
4.779417359e-27
4.130038002e-27
3.719579694e-27
4.344622474e-26
0.08324376196
0.09553615269
0.08176265455
0.1410638986
0.5161334905
3.682178408
59.96589032
4.433803846
25909.79882
1.190014714e-21
1.146324293e-21
5.552360295e-22
2.90760765e-22
1.612090031e-22
9.356131925e-23
5.638263436e-23
3.50705245e-23
2.241260363e-23
1.466244096e-23
9.789942535e-24
6.654552446e-24
4.595012231e-24
3.21716903e-24
2.280203453e-24
1.633672619e-24
1.18168245e-24
8.619794839e-25
6.334682563e-25
4.686023667e-25
3.486569915e-25
2.60739464e-25
1.958678269e-25
1.477169634e-25
1.117887405e-25
8.485551126e-26
6.458232687e-26
4.926752297e-26
3.766268449e-26
2.884646117e-26
2.213531616e-26
1.701986811e-26
1.311914382e-26
1.014748354e-26
7.89046726e-27
6.187333066e-27
4.918114015e-27
3.994243639e-27
3.35174992e-27
2.94559192e-27
5.478600781e-26
0.09562851746
0.1086325302
0.08518412057
0.2919204299
0.1285696149
14.34040457
42.12072978
17.9927945
19887.20559
7.133770915e-22
6.193393282e-22
3.298943354e-22
1.865807044e-22
1.100922925e-22
6.724938821e-23
4.229744155e-23
2.728094694e-23
1.798482786e-23
1.20859259e-23
8.260062968e-24
5.73002076e-24
4.027610056e-24
2.864153535e-24
2.057872226e-24
1.492089398e-24
1.090595078e-24
8.028084112e-25
5.94662541e-25
4.429019337e-25
3.314538939e-25
2.49083361e-25
1.878548394e-25
1.421098423e-25
1.077783653e-25
8.190973337e-26
6.23493621e-26
4.751373571e-26
3.623224492e-26
2.763502268e-26
2.107274411e-26
1.60588498e-26
1.222764212e-26
9.303715511e-27
7.079549086e-27
5.399028647e-27
4.145316502e-27
3.231944064e-27
2.596328222e-27
2.194441851e-27
6.584434536e-26
0.1054495773
0.1074288182
0.132843601
0.387793987
0.8685234183
29.53000914
19.05630105
32.08116575
12734.32763
4.25141064e-22
3.165601809e-22
1.874645098e-22
1.153151822e-22
7.280555647e-23
4.701241598e-23
3.097170591e-23
2.077537541e-23
1.416393762e-23
9.79840754e-24
6.867610163e-24
4.870029089e-24
3.48966147e-24
2.523836255e-24
1.840401033e-24
1.351847343e-24
9.993930033e-25
7.430240297e-25
5.551652124e-25
4.165963313e-25
3.137797569e-25
2.370881921e-25
1.796145244e-25
1.363631088e-25
1.036941158e-25
7.893777125e-26
6.012393083e-26
4.579078215e-26
3.484837739e-26
2.648052065e-26
2.007372463e-26
1.516543379e-26
1.140607149e-26
8.531083214e-27
6.340263786e-27
4.682434474e-27
3.444083414e-27
2.540972421e-27
1.911994883e-27
1.514203884e-27
7.591003587e-26
0.1073323866
0.10580243
0.2039130106
0.122273987
6.604809335
34.78128421
4.1397302
37.85888343
6707.264166
2.303789937e-22
1.594127589e-22
1.049123492e-22
7.007760785e-23
4.731259179e-23
3.230585331e-23
2.231259934e-23
1.558417572e-23
1.100175957e-23
7.844886174e-24
5.645686131e-24
4.097288631e-24
2.996215393e-24
2.206006215e-24
1.634096903e-24
1.216993799e-24
9.106732423e-25
6.842979474e-25
5.160589497e-25
3.903936298e-25
2.961041415e-25
2.250713647e-25
1.713669674e-25
1.306344004e-25
9.965341643e-26
7.603105415e-26
5.798058954e-26
4.416221946e-26
3.356743577e-26
2.543456873e-26
1.918673594e-26
1.438601305e-26
1.069943019e-26
7.873646727e-27
5.716037127e-27
4.080545973e-27
2.857118415e-27
1.963836488e-27
1.341130053e-27
9.47179048e-28
8.434285921e-26
0.09653882492
0.1192355972
0.1693288337
0.3971520624
15.54167014
23.36166698
3.021996603
33.68603386
2845.236024
1.265338901e-22
8.151095293e-23
5.902189804e-23
4.252626637e-23
3.057554382e-23
2.202591565e-23
1.593166893e-23
1.158326828e-23
8.469242533e-24
6.227723362e-24
4.604741759e-24
3.422388003e-24
2.555787132e-24
1.916906787e-24
1.443328815e-24
1.090507987e-24
8.264379574e-25
6.279657258e-25
4.782326756e-25
3.648868442e-25
2.788254051e-25
2.13303759e-25
1.632998036e-25
1.250570945e-25
9.575432976e-26
7.32646908e-26
5.597955224e-26
4.267861956e-26
3.24337721e-26
2.453752728e-26
1.844959568e-26
1.375680256e-26
1.014293806e-26
7.366020859e-27
5.241126808e-27
3.627418833e-27
2.418369783e-27
1.534432517e-27
9.176082425e-28
5.27232319e-28
9.061414677e-26
0.08128225504
0.1256488744
0.02398829426
3.652241263
19.24076869
9.036586786
8.712053158
24.12994408
947.886989
7.517090455e-23
4.322054112e-23
3.383711293e-23
2.6039436e-23
1.981902962e-23
1.500770471e-23
1.134388692e-23
8.575411267e-24
6.490333657e-24
4.920964004e-24
3.738665364e-24
2.846367066e-24
2.171424243e-24
1.659658024e-24
1.270680588e-24
9.74345473e-25
7.480985994e-25
5.750184705e-25
4.423711411e-25
3.405449454e-25
2.62263814e-25
2.020046741e-25
1.555645171e-25
1.19737514e-25
9.207332833e-26
7.069556807e-26
5.416496002e-26
4.137591156e-26
3.14780935e-26
2.381684224e-26
1.788776547e-26
1.330210316e-26
9.76025892e-27
7.031558532e-27
4.938771102e-27
3.346287869e-27
2.151124695e-27
1.27612013e-27
6.648588721e-28
2.778437584e-28
9.433901932e-26
0.06814151671
0.07510161098
0.4360664471
9.056933325
14.93771969
1.137923947
13.85404567
14.4422862
238.4771775
4.879155835e-23
2.399559165e-23
1.990694686e-23
1.618686966e-23
1.295885446e-23
1.027328739e-23
8.093713903e-24
6.351165957e-24
4.970900852e-24
3.883961564e-24
3.031182247e-24
2.3637132e-24
1.842101394e-24
1.434899572e-24
1.117242497e-24
8.695672516e-25
6.765309909e-25
5.261250517e-25
4.08963108e-25
3.177154045e-25
2.466620477e-25
1.913417359e-25
1.482762563e-25
1.147547784e-25
8.866517064e-26
6.836220839e-26
5.256467772e-26
4.027508876e-26
3.071706419e-26
2.328653735e-26
1.751373579e-26
1.303358601e-26
9.5626943e-27
6.881464652e-27
4.820233952e-27
3.248554338e-27
2.066949392e-27
1.20062548e-27
5.947421357e-28
2.109664523e-28
9.529844004e-26
0.05167177907
0.01087967593
2.605998367
12.48034289
7.394158128
0.964969479
15.6417657
7.243992854
42.90094951
3.38157277e-23
1.378862588e-23
1.200935073e-23
1.024062378e-23
8.576559845e-24