/*--------------------------------*- C++ -*----------------------------------*\
| =========                 |                                                 |
| \\      /  F ield         | OpenFOAM: The Open Source CFD Toolbox           |
|  \\    /   O peration     | Version:  3.0.1                                 |
|   \\  /    A nd           | Web:      www.OpenFOAM.org                      |
|    \\/     M anipulation  |                                                 |
\*---------------------------------------------------------------------------*/
FoamFile
{
    version     2.0;
    format      ascii;
    class       volVectorField;
    location    "0";
    object      D;
}
// * * * * * * * * * * * * * * * * * * * * * * * * * * * * * * * * * * * * * //

dimensions      [0 1 0 0 0 0 0];

internalField   uniform (0 0 0);

boundaryField
{
	frontAndBack{
	type            fixedValue;
        value           uniform (0.0 0 0);
//	type            zeroGradient;//	type            noSlip;
	}
    lowerWall
    {
	type            fixedValue;
        value           uniform (0.0 0 0);
//	type            zeroGradient;//	type            noSlip;
    }
    atmosphere
    {
//	type            fixedValue;
//        value           uniform (0.0 0 0);
	type            zeroGradient;//	type            noSlip;
    }
    defaultFaces
    {
        type            empty;
    }
}


// ************************************************************************* //
