/*--------------------------------*- C++ -*----------------------------------*\
  =========                 |
  \\      /  F ield         | OpenFOAM: The Open Source CFD Toolbox
   \\    /   O peration     | Website:  https://openfoam.org
    \\  /    A nd           | Version:  6
     \\/     M anipulation  |
\*---------------------------------------------------------------------------*/
FoamFile
{
    version     2.0;
    format      ascii;
    class       surfaceScalarField;
    location    "0.02";
    object      alphaPhi0.phase1;
}
// * * * * * * * * * * * * * * * * * * * * * * * * * * * * * * * * * * * * * //

dimensions      [0 3 -1 0 0 0 0];

internalField   nonuniform List<scalar> 
4900
(
-1.905134816e-48
-5.32411019e-50
-6.856155808e-45
-1.03475035e-46
-6.847035179e-41
-6.056844875e-43
-1.417345875e-36
-5.274989519e-39
-4.800876594e-34
-7.825849783e-36
-2.222084667e-34
-3.912220619e-34
6.21175175e-31
-6.213973835e-31
6.411751526e-35
-2.39439939e-26
-8.920357401e-22
-1.105320612e-25
-8.844779914e-22
-7.557748707e-24
-8.697089251e-22
-1.477309397e-23
-8.482285412e-22
-2.148943833e-23
-8.207380198e-22
-2.750429853e-23
-7.880903648e-22
-3.266602704e-23
-7.512346433e-22
-3.687863035e-23
-7.11160498e-22
-4.010154263e-23
-6.688476683e-22
-4.234466318e-23
-6.25223927e-22
-4.365995084e-23
-5.811332884e-22
-4.413115653e-23
-5.373148827e-22
-4.386315665e-23
-4.943917623e-22
-4.297202198e-23
-4.52868167e-22
-4.157655792e-23
-4.131334182e-22
-3.979167652e-23
-3.754705493e-22
-3.772365956e-23
-3.400679314e-22
-3.546716356e-23
-3.070324219e-22
-3.31036973e-23
-2.7640288e-22
-3.070125352e-23
-2.48163214e-22
-2.831477887e-23
-2.222544019e-22
-2.598719958e-23
-1.985851642e-22
-2.37507694e-23
-1.770411469e-22
-2.162855944e-23
-1.574926035e-22
-1.963595966e-23
-1.398006502e-22
-1.778210439e-23
-1.238222261e-22
-1.607116911e-23
-1.094139101e-22
-1.450351158e-23
-9.64347624e-23
-1.30766493e-23
-8.474834662e-23
-1.178607758e-23
-7.422408129e-23
-1.062594042e-23
-6.473805164e-23
-9.589570416e-24
-5.61733943e-23
-8.669915584e-24
-4.842035026e-23
-7.859871201e-24
-4.137606372e-23
-7.152533812e-24
-3.494418861e-23
-6.541393604e-24
-2.903434816e-23
-6.020481271e-24
-2.356147391e-23
-5.584488627e-24
-1.844501649e-23
-5.228896777e-24
-1.360793257e-23
-4.950199957e-24
-8.975059369e-24
-4.746517986e-24
-4.469388063e-24
-4.61969717e-24
-4.583646887e-24
-3.73125978e-48
-2.201180753e-49
-3.590822728e-45
-4.472353626e-46
-2.579021987e-41
-2.53415837e-42
-6.163268873e-37
-1.953428937e-38
-3.109619374e-34
-2.508824215e-35
-7.755454385e-34
-1.132331164e-33
5.421944086e-30
-6.044728784e-30
1.342623906e-32
-1.634543072e-25
-8.995039304e-22
-2.181302499e-25
-8.91692152e-22
-1.537756636e-23
-8.764242518e-22
-3.005783994e-23
-8.54242637e-22
-4.36965735e-23
-8.258992609e-22
-5.588145239e-23
-7.923027567e-22
-6.630441801e-23
-7.544575954e-22
-7.477369277e-23
-7.13403868e-22
-8.12130889e-23
-6.701633639e-22
-8.565079494e-23
-6.25695646e-22
-8.820098267e-23
-5.808658578e-22
-8.90418091e-23
-5.364243312e-22
-8.83929491e-23
-4.929968623e-22
-8.649499724e-23
-4.510838069e-22
-8.359218742e-23
-4.11065865e-22
-7.991907704e-23
-3.732144518e-22
-7.569122188e-23
-3.377047967e-22
-7.109945532e-23
-3.04630245e-22
-6.630716134e-23
-2.740166127e-22
-6.144985387e-23
-2.458357892e-22
-5.663639904e-23
-2.200180807e-22
-5.195129985e-23
-1.964630253e-22
-4.745757243e-23
-1.750485873e-22
-4.319985616e-23
-1.55638764e-22
-3.920750409e-23
-1.380897121e-22
-3.549748693e-23
-1.222545518e-22
-3.207701342e-23
-1.079870213e-22
-2.894582078e-23
-9.514415776e-23
-2.609812515e-23
-8.358817282e-23
-2.352424573e-23
-7.318767304e-23
-2.12119302e-23
-6.381835861e-23
-1.914741655e-23
-5.536331304e-23
-1.731626879e-23
-4.771297826e-23
-1.570402338e-23
-4.076489192e-23
-1.4296681e-23
-3.44232483e-23
-1.308107522e-23
-2.859833182e-23
-1.204514689e-23
-2.320586381e-23
-1.117815135e-23
-1.816631014e-23
-1.047082603e-23
-1.340426106e-23
-9.915542262e-24
-8.848312925e-24
-9.506416975e-24
-4.433351558e-24
-9.23901545e-24
-9.107207902e-24
-1.904487245e-47
-2.804033571e-48
-4.64382982e-44
-3.721593812e-44
-3.746918331e-40
-2.056450816e-40
-5.227804787e-36
-1.371389101e-36
-1.617717902e-33
-4.413729909e-34
-3.575677534e-33
-6.218843348e-33
2.195928568e-29
-2.801173701e-29
6.518052675e-32
-5.808279473e-25
-9.147320082e-22
-3.366020594e-25
-9.063700031e-22
-2.374615639e-23
-8.900609363e-22
-4.638094089e-23
-8.664259852e-22
-6.735305502e-23
-8.363212744e-22
-8.601486959e-23
-8.007716546e-22
-1.0188981e-22
-7.608971341e-22
-1.146909749e-22
-7.178421446e-22
-1.243177478e-22
-6.727144407e-22
-1.308349823e-22
-6.265375683e-22
-1.344410471e-22
-5.802181979e-22
-1.354309627e-22
-5.345275976e-22
-1.341597952e-22
-4.900952225e-22
-1.310099413e-22
-4.474117721e-22
-1.263643807e-22
-4.068389623e-22
-1.205866444e-22
-3.68623501e-22
-1.140072873e-22
-3.329131797e-22
-1.069160512e-22
-2.997734817e-22
-9.955862032e-23
-2.692035807e-22
-9.213681149e-23
-2.411510058e-22
-8.481112879e-23
-2.155245775e-22
-7.770477831e-23
-1.92205457e-22
-7.090843032e-23
-1.710563215e-22
-6.448520357e-23
-1.519287843e-22
-5.847551112e-23
-1.346692388e-22
-5.290154044e-23
-1.191233318e-22
-4.777124353e-23
-1.051392788e-22
-4.308178683e-23
-9.257021854e-23
-3.882246116e-23
-8.127578986e-23
-3.497708414e-23
-7.112308852e-23
-3.152594526e-23
-6.198713975e-23
-2.844735216e-23
-5.375099874e-23
-2.571883828e-23
-4.630557105e-23
-2.331808935e-23
-3.954922674e-23
-2.122364136e-23
-3.338726703e-23
-1.941539671e-23
-2.773129065e-23
-1.787499886e-23
-2.249850096e-23
-1.658609881e-23
-1.761099751e-23
-1.553453809e-23
-1.299511391e-23
-1.470845424e-23
-8.580879683e-24
-1.40982679e-23
-4.301460565e-24
-1.369640443e-23
-1.349655435e-23
-2.033563936e-46
-1.726798735e-47
-5.039184048e-43
-5.930483276e-44
-4.489056795e-39
-2.589824567e-40
-4.743026496e-35
-1.167209762e-36
-1.366288183e-32
-1.863301985e-33
-2.272023225e-32
-4.182794402e-31
2.363640321e-26
-2.366440858e-26
2.15590383e-31
-1.120171378e-21
-9.382468529e-22
-4.803985415e-25
-9.290009388e-22
-3.299855246e-23
-9.110298273e-22
-6.436583545e-23
-8.850854275e-22
-9.33186118e-23
-8.521947864e-22
-1.189337376e-22
-8.135723181e-22
-1.405474711e-22
-7.705242292e-22
-1.577811487e-22
-7.243603661e-22
-1.705305073e-22
-6.763219738e-22
-1.789289905e-22
-6.275292513e-22
-1.83296001e-22
-5.789489339e-22
-1.840800114e-22
-5.313796504e-22
-1.81804183e-22
-4.85451472e-22
-1.770194597e-22
-4.416356818e-22
-1.702675992e-22
-4.002610481e-22
-1.620546382e-22
-3.615334885e-22
-1.528339729e-22
-3.255567541e-22
-1.429975039e-22
-2.923524724e-22
-1.328730312e-22
-2.618785118e-22
-1.227261241e-22
-2.340451071e-22
-1.127649137e-22
-2.087285441e-22
-1.031465498e-22
-1.857824317e-22
-9.398437412e-23
-1.650467398e-22
-8.535514038e-23
-1.463548535e-22
-7.730584211e-23
-1.29538928e-22
-6.985989373e-23
-1.144338219e-22
-6.302254068e-23
-1.008798727e-22
-5.678546848e-23
-8.872474353e-23
-5.113064004e-23
-7.78245431e-23
-4.603342606e-23
-6.804438367e-23
-4.146511122e-23
-5.925851487e-23
-3.739486492e-23
-5.135014303e-23
-3.379126329e-23
-4.421102307e-23
-3.062344307e-23
-3.774089078e-23
-2.78619592e-23
-3.184678784e-23
-2.547940813e-23
-2.644232017e-23
-2.345086914e-23
-2.144688125e-23
-2.175420578e-23
-1.678486601e-23
-2.037025821e-23
-1.238488975e-23
-1.92829435e-23
-8.178984367e-24
-1.847926504e-23
-4.101593813e-24
-1.794923447e-23
-1.768583047e-23
-6.02631877e-46
-6.93425781e-47
-5.798130069e-43
-1.36872507e-43
-1.507854752e-39
-4.985293762e-40
-8.59922633e-36
-2.061247363e-36
-1.270247078e-31
-1.696734628e-32
-9.26765637e-30
-5.145795544e-29
1.240665992e-24
-1.263603006e-24
6.236872712e-18
-9.843564877e-21
-9.709121202e-22
-7.737662792e-25
-9.603627277e-22
-4.355442272e-23
-9.399780087e-22
-8.476432172e-23
-9.106972489e-22
-1.22620503e-22
-8.738066339e-22
-1.558525459e-22
-8.308054754e-22
-1.835837816e-22
-7.832742509e-22
-2.0535441e-22
-7.32760438e-22
-2.210931615e-22
-6.80691216e-22
-2.310537662e-22
-6.283158654e-22
-2.357335137e-22
-5.766758478e-22
-2.357886841e-22
-5.265976241e-22
-2.31957428e-22
-4.787021307e-22
-2.249962033e-22
-4.334249783e-22
-2.156320835e-22
-3.910423341e-22
-2.045305393e-22
-3.516986519e-22
-1.922766717e-22
-3.154336039e-22
-1.793671545e-22
-2.822066019e-22
-1.662100405e-22
-2.519180841e-22
-1.531298662e-22
-2.244273078e-22
-1.403759369e-22
-1.995667509e-22
-1.281321761e-22
-1.771534322e-22
-1.165273798e-22
-1.569975583e-22
-1.056451095e-22
-1.389089314e-22
-9.553275917e-23
-1.227015336e-22
-8.620955998e-23
-1.0819666e-22
-7.767344164e-23
-9.522492169e-23
-6.990677116e-23
-8.362738662e-23
-6.288105273e-23
-7.32560748e-23
-5.656070347e-23
-6.397398094e-23
-5.090603214e-23
-5.565475959e-23
-4.587554742e-23
-4.818217622e-23
-4.142771389e-23
-4.144940277e-23
-3.752226144e-23
-3.535821563e-23
-3.412114032e-23
-2.981813865e-23
-3.118919946e-23
-2.474556143e-23
-2.869465237e-23
-2.00628536e-23
-2.660938261e-23
-1.569748657e-23
-2.490912855e-23
-1.158116147e-23
-2.357357738e-23
-7.648918683e-24
-2.258639284e-23
-3.838173234e-24
-2.19352112e-23
-2.161168335e-23
-6.999818907e-45
-1.465749772e-45
-1.134166758e-41
-6.664470181e-42
-2.106961993e-38
-2.157586468e-38
-6.193020137e-35
-1.065385477e-34
-5.486728413e-31
-1.241034128e-31
2.757225543e-28
-3.175201521e-28
5.892297743e-24
-7.153616953e-24
7.462021127e-18
-5.763004957e-20
-1.013887081e-21
-1.089584007e-24
-1.001564816e-21
-5.588316834e-23
-9.778278663e-22
-1.085150429e-22
-9.439249271e-22
-1.5654458e-22
-9.015355791e-22
-1.982700953e-22
-8.525757472e-22
-2.32578775e-22
-7.990142635e-22
-2.589579414e-22
-7.427235166e-22
-2.774327619e-22
-6.853742292e-22
-2.884586206e-22
-6.283747097e-22
-2.927952098e-22
-5.728483572e-22
-2.913837071e-22
-5.196400189e-22
-2.852408041e-22
-4.693413242e-22
-2.753761656e-22
-4.223263473e-22
-2.627344104e-22
-3.787909398e-22
-2.481592227e-22
-3.387911667e-22
-2.323754809e-22
-3.022781062e-22
-2.159848376e-22
-2.691276693e-22
-1.994705055e-22
-2.39165071e-22
-1.832077098e-22
-2.121841886e-22
-1.674770874e-22
-1.87962371e-22
-1.524790847e-22
-1.662713981e-22
-1.383480616e-22
-1.468853038e-22
-1.251653211e-22
-1.29585722e-22
-1.129706532e-22
-1.141653276e-22
-1.01772245e-22
-1.004298477e-22
-9.155497099e-23
-8.819902616e-23
-8.228717917e-23
-7.730683978e-23
-7.392613872e-23
-6.760119691e-23
-6.642233375e-23
-5.894328944e-23
-5.972278826e-23
-5.120672555e-23
-5.377359378e-23
-4.427653432e-23
-4.852179332e-23
-3.804810665e-23
-4.391675458e-23
-3.24261165e-23
-3.991114448e-23
-2.732345157e-23
-3.646159812e-23
-2.266017087e-23
-3.352915767e-23
-1.836249839e-23
-3.107954171e-23
-1.436185403e-23
-2.908329267e-23
-1.059391531e-23
-2.751584004e-23
-6.997695411e-24
-2.63575116e-23
-3.514624804e-24
-2.55935261e-23
-2.521400493e-23
-2.920785661e-43
-5.556001021e-44
-4.411699918e-40
-2.224363481e-40
-3.206153053e-36
-6.145595432e-37
-2.635844072e-32
-1.922546537e-33
-3.997344375e-31
-7.441992952e-31
2.037318039e-27
-2.355788082e-27
1.959921723e-23
-2.674902873e-23
7.186904867e-18
-1.905491772e-19
-1.0689303e-21
-1.437650716e-24
-1.05418594e-21
-7.063401208e-23
-1.025848933e-21
-1.368658277e-22
-9.856449013e-22
-1.967697584e-22
-9.358417041e-22
-2.481015055e-22
-8.789550358e-22
-2.895006188e-22
-8.17491348e-22
-3.204636932e-22
-7.537531547e-22
-3.41219827e-22
-6.897155019e-22
-3.525518606e-22
-6.269682672e-22
-3.55604643e-22
-5.667104801e-22
-3.517101885e-22
-5.097800831e-22
-3.422462644e-22
-4.567037696e-22
-3.285337738e-22
-4.07754769e-22
-3.117707899e-22
-3.63010194e-22
-2.929971037e-22
-3.224029298e-22
-2.730818128e-22
-2.857656428e-22
-2.527267801e-22
-2.528662715e-22
-2.324799388e-22
-2.234354471e-22
-2.127538144e-22
-1.971868552e-22
-1.938459835e-22
-1.738317531e-22
-1.759593146e-22
-1.53088856e-22
-1.592207052e-22
-1.34690677e-22
-1.436976557e-22
-1.183872387e-22
-1.294124427e-22
-1.039478961e-22
-1.163539178e-22
-9.116184327e-23
-1.044871133e-22
-7.983773924e-23
-9.376090999e-23
-6.980277109e-23
-8.41140471e-23
-6.090138304e-23
-7.547975005e-23
-5.29938313e-23
-6.778922964e-23
-4.5954673e-23
-6.097427554e-23
-3.967125991e-23
-5.496913555e-23
-3.404228063e-23
-4.97118401e-23
-2.897637616e-23
-4.514510345e-23
-2.439084042e-23
-4.121690768e-23
-2.021040823e-23
-3.788085399e-23
-1.6366127e-23
-3.509634841e-23
-1.279430342e-23
-3.282867404e-23
-9.435513238e-24
-3.104899126e-23
-6.233660686e-24
-2.973429931e-23
-3.135079042e-24
-2.88673877e-23
-2.843680037e-23
-6.488932233e-42
-1.292309773e-42
-8.7542533e-39
-4.149516816e-39
-5.487834753e-35
-1.028755717e-35
-1.545265406e-31
-2.117777681e-32
-1.785629059e-30
-4.342787311e-30
7.832014153e-27
-1.019173883e-26
5.515147055e-23
-8.189097883e-23
4.334098039e-18
-3.769655201e-19
-1.138445136e-21
-1.528700583e-24
-1.120402883e-21
-8.868275106e-23
-1.085741691e-21
-1.715408033e-22
-1.036969873e-21
-2.455627313e-22
-9.772383071e-22
-3.078612959e-22
-9.099192459e-22
-3.568548694e-22
-8.382513744e-22
-3.921736451e-22
-7.650908841e-22
-4.144292075e-22
-6.92774913e-22
-4.249234393e-22
-6.230806704e-22
-4.253611065e-22
-5.572531315e-22
-4.17606446e-22
-4.960735573e-22
-4.035009278e-22
-4.399459629e-22
-3.847426908e-22
-3.889854107e-22
-3.628187504e-22
-3.430983983e-22
-3.389774531e-22
-3.020506261e-22
-3.142286851e-22
-2.655208563e-22
-2.893612392e-22
-2.331416294e-22
-2.649692627e-22
-2.04528627e-22
-2.414821333e-22
-1.793008187e-22
-2.191941332e-22
-1.570934802e-22
-1.982918192e-22
-1.375659178e-22
-1.788780532e-22
-1.204054087e-22
-1.609923603e-22
-1.053285399e-22
-1.446277034e-22
-9.208083723e-23
-1.297439917e-22
-8.043533507e-23
-1.162787466e-22
-7.019054394e-23
-1.041553701e-22
-6.116813158e-23
-9.328944227e-23
-5.321052303e-23
-8.359342971e-23
-4.617854983e-23
-7.49801355e-23
-3.994922446e-23
-6.736516751e-23
-3.441367921e-23
-6.066865306e-23
-2.947528497e-23
-5.481638359e-23
-2.504794935e-23
-4.974053637e-23
-2.10545846e-23
-4.538008872e-23
-1.742572977e-23
-4.168101499e-23
-1.409830901e-23
-3.859633613e-23
-1.10145061e-23
-3.608607561e-23
-8.120735562e-24
-3.411716307e-23
-5.366692016e-24
-3.266331762e-23
-2.704463181e-24
-3.170493563e-23
-3.122900023e-23
-8.746199518e-41
-1.046603215e-41
-1.007902496e-37
-2.082173603e-38
-5.248446615e-34
-4.260375549e-35
-7.283436629e-31
-6.212265171e-32
-6.450990817e-30
-1.056975976e-29
1.814750498e-26
-2.835488032e-26
7.351928185e-23
-1.553950099e-22
-3.480289e-18
-4.439016807e-19
-1.226020927e-21
-1.391721173e-24
-1.203241018e-21
-1.114691501e-22
-1.159749247e-21
-2.150463627e-22
-1.09926056e-21
-3.060725805e-22
-1.026230033e-21
-3.809200574e-22
-9.452410587e-22
-4.378790463e-22
-8.605134114e-22
-4.769433885e-22
-7.755935978e-22
-4.993979295e-22
-6.93221858e-22
-5.07350807e-22
-6.15335176e-22
-5.033100315e-22
-5.431560674e-22
-4.898542971e-22
-4.773227241e-22
-4.694093861e-22
-4.180282386e-22
-4.441185262e-22
-3.651491426e-22
-4.157852836e-22
-3.183535588e-22
-3.858664046e-22
-2.771861397e-22
-3.554952364e-22
-2.411310188e-22
-3.255210827e-22
-2.096559661e-22
-2.965544472e-22
-1.822415566e-22
-2.690118953e-22
-1.583990174e-22
-2.431570508e-22
-1.376799114e-22
-2.191361294e-22
-1.196801903e-22
-1.970075989e-22
-1.040405525e-22
-1.767662334e-22
-9.044451729e-23
-1.58362171e-22
-7.861521087e-23
-1.417157107e-22
-6.831153832e-23
-1.267285922e-22
-5.932418033e-23
-1.132924394e-22
-5.14716849e-23
-1.012949632e-22
-4.459680863e-23
-9.062442007e-23
-3.856318416e-23
-8.117273583e-23
-3.32523405e-23
-7.283762109e-23
-2.856107203e-23
-6.552393716e-23
-2.439913389e-23
-5.914451427e-23
-2.068723268e-23
-5.362057801e-23
-1.735527693e-23
-4.888190364e-23
-1.434085184e-23
-4.486678878e-23
-1.158788381e-23
-4.152191321e-23
-9.045462674e-24
-3.880213703e-23
-6.66679248e-24
-3.667027566e-23
-4.4082452e-24
-3.509688032e-23
-2.228495393e-24
-3.406004481e-23
-3.354525278e-23
-6.840608994e-40
-6.739478691e-41
-6.387532628e-37
-1.147510073e-37
-2.089278916e-33
-1.924918893e-34
-1.666298408e-30
-1.711749898e-31
-1.439314651e-29
-2.200901966e-29
-5.094298904e-27
-2.331910291e-26
8.133541399e-25
-1.562547347e-22
-2.206351441e-17
-2.607423029e-19
-1.336727541e-21
-2.266369657e-24
-1.306792482e-21
-1.414107005e-22
-1.250757409e-21
-2.71095227e-22
-1.174099517e-21
-3.827516411e-22
-1.083188979e-21
-4.718588387e-22
-9.843117855e-22
-5.367914551e-22
-8.829784377e-22
-5.783188475e-22
-7.835589545e-22
-5.988663384e-22
-6.891939167e-22
-6.017714922e-22
-6.018915171e-22
-5.906746957e-22
-5.227218269e-22
-5.690927531e-22
-4.520408448e-22
-5.401655083e-22
-3.897022506e-22
-5.06538497e-22
-3.352359082e-22
-4.703390917e-22
-2.87986621e-22
-4.332090895e-22
-2.472150273e-22
-3.963659937e-22
-2.121664587e-22
-3.606744069e-22
-1.82114728e-22
-3.267163438e-22
-1.56387441e-22
-2.948545699e-22
-1.343783879e-22
-2.652865188e-22
-1.155513554e-22
-2.380884035e-22
-9.943857701e-23
-2.132502403e-22
-8.563609356e-23
-1.907029915e-22
-7.379756794e-23
-1.703391691e-22
-6.362755279e-23
-1.520281792e-22
-5.487482652e-23
-1.356275328e-22
-4.73261478e-23
-1.209908712e-22
-4.080060369e-23
-1.079735751e-22
-3.514461508e-23
-9.643656539e-23
-3.022759569e-23
-8.624877395e-23
-2.593822252e-23
-7.728864721e-23
-2.218125688e-23
-6.944496153e-23
-1.887484796e-23
-6.261715881e-23
-1.594825106e-23
-5.671535831e-23
-1.333989655e-23
-5.166016009e-23
-1.099575148e-23
-4.738232506e-23
-8.867922457e-24
-4.382239347e-23
-6.913454652e-24
-4.093028691e-23
-5.093288048e-24
-3.866492606e-23
-3.3713374e-24
-3.699388742e-23
-1.713667291e-24
-3.589311499e-23
-3.534669765e-23
-1.57674276e-38
-1.878771036e-39
-1.874043614e-35
-3.58214306e-36
-3.28643988e-32
-4.299859692e-33
-1.016856959e-29
-2.794700824e-30
-4.366145564e-29
-4.663258219e-28
4.554283916e-27
-2.893616519e-26
-1.558587268e-22
-4.901904e-25
-1.880548688e-17
-1.491236172e-22
-1.477004311e-21
-5.128283966e-24
-1.436442455e-21
-1.81979049e-22
-1.362391317e-21
-3.451601608e-22
-1.263198607e-21
-4.819655251e-22
-1.148125405e-21
-5.869602909e-22
-1.025851233e-21
-6.591008528e-22
-9.035425306e-22
-7.006696754e-22
-7.864822235e-22
-7.159755877e-22
-6.781146248e-22
-7.10194757e-22
-5.80325206e-22
-6.885263997e-22
-4.938077548e-22
-6.556789926e-22
-4.184244276e-22
-6.156239997e-22
-3.535110225e-22
-5.715333047e-22
-2.981119706e-22
-5.258256367e-22
-2.511478325e-22
-4.802666542e-22
-2.115263403e-22
-4.360866801e-22
-1.782102035e-22
-3.940953311e-22
-1.502539385e-22
-3.547828079e-22
-1.268197703e-22
-3.184041602e-22
-1.071802237e-22
-2.850465158e-22
-9.071284909e-23
-2.546810564e-22
-7.689079336e-23
-2.272021967e-22
-6.527162122e-23
-2.024564767e-22
-5.548586873e-23
-1.802634333e-22
-4.722617769e-23
-1.604303635e-22
-4.023744496e-23
-1.427625204e-22
-3.430815918e-23
-1.270699512e-22
-2.926294138e-23
-1.131719022e-22
-2.495621839e-23
-1.00899487e-22
-2.126691512e-23
-9.009713811e-23
-1.809403611e-23
-8.06232215e-23
-1.535300659e-23
-7.23500922e-23
-1.297265207e-23
-6.516379141e-23
-1.089270805e-23
-5.896352812e-23
-9.061765424e-24
-5.366104692e-23
-7.435570513e-24
-4.917995323e-23
-5.975611325e-24
-4.545504568e-23
-4.647932337e-24
-4.243168946e-23
-3.422129607e-24
-4.006525376e-23
-2.270485736e-24
-3.832062859e-23
-1.167210467e-24
-3.71718309e-23
-3.660170578e-23
-2.909467118e-36
-3.741561721e-37
-1.916484335e-33
-5.923234021e-34
-2.420117404e-30
-6.487624754e-31
-2.165688974e-27
-9.342931428e-28
-1.215705499e-25
-2.336063504e-25
-7.572849392e-26
-3.209934937e-24
1.201436042e-23
-1.571903432e-23
1.979928444e-30
-2.557618586e-21
-1.656312443e-21
-1.201541143e-23
-1.599577161e-21
-2.387208238e-22
-1.499169614e-21
-4.455815083e-22
-1.368188144e-21
-6.129681764e-22
-1.220277295e-21
-7.348993975e-22
-1.067441479e-21
-8.119719042e-22
-9.188741935e-22
-8.492790981e-22
-7.807272676e-22
-8.541714711e-22
-6.564697063e-22
-8.34508002e-22
-5.474975731e-22
-7.975608377e-22
-4.537685576e-22
-7.494768179e-22
-3.743457796e-22
-6.951219652e-22
-3.078121499e-22
-6.381483618e-22
-2.525591177e-22
-5.811661885e-22
-2.069718928e-22
-5.259473337e-22
-1.695374348e-22
-4.736203617e-22
-1.388989522e-22
-4.248386319e-22
-1.138757262e-22
-3.799162652e-22
-9.346198354e-23
-3.389333583e-22
-7.681423931e-23
-3.018147449e-22
-6.323322582e-23
-2.683873835e-22
-5.214417516e-23
-2.384211843e-22
-4.30776186e-23
-2.116573835e-22
-3.565182936e-23
-1.878277723e-22
-2.95573888e-23
-1.666673361e-22
-2.45439758e-23
-1.479222276e-22
-2.04092692e-23
-1.313544919e-22
-1.698975155e-23
-1.167445695e-22
-1.415316426e-23
-1.038923136e-22
-1.179236289e-23
-9.261704137e-23
-9.82033933e-24
-8.275698157e-23
-8.166203893e-24
-7.416837015e-23
-6.771949297e-24
-6.672436549e-23
-5.589846418e-24
-6.031389818e-23
-4.580347043e-24
-5.484053178e-23
-3.710390894e-24
-5.022138377e-23
-2.95203285e-24
-4.638613768e-23
-2.281321786e-24
-4.327616478e-23
-1.677375049e-24
-4.084376589e-23
-1.121602608e-24
-3.905153849e-23
-5.97042831e-25
-3.78718712e-23
-3.728656575e-23
-7.146935331e-34
-8.737519876e-35
-4.560652747e-31
-1.303312776e-31
-6.070397302e-28
-1.478925122e-28
-2.546931589e-25
-8.651978553e-26
-8.701181329e-24
-8.574540777e-24
-3.897574046e-24
-1.160515387e-22
3.757727204e-21
-3.780981718e-21
1.717119413e-28
-5.129496543e-19
-1.889211032e-21
-3.083230119e-23
-1.806379711e-21
-3.215586386e-22
-1.666526486e-21
-5.854485385e-22
-1.490122276e-21
-7.893935771e-22
-1.297375101e-21
-9.276748383e-22
-1.104785224e-21
-1.004597024e-21
-9.238056691e-22
-1.030300802e-21
-7.610999948e-22
-1.016926117e-21
-6.195531458e-22
-9.76110551e-22
-4.994377855e-22
-9.177385214e-22
-3.994318954e-22
-8.495515381e-22
-3.173851794e-22
-7.772438908e-22
-2.508388053e-22
-7.047761869e-22
-1.973458874e-22
-6.347466512e-22
-1.546481781e-22
-5.687385241e-22
-1.207572721e-22
-5.076105192e-22
-9.397698661e-23
-4.51723765e-22
-7.289244662e-23
-4.011110669e-22
-5.634250964e-23
-3.555987825e-22
-4.338573302e-23
-3.148920392e-22
-3.326573864e-23
-2.786327255e-22
-2.537903919e-23
-2.464378556e-22
-1.924668799e-23
-2.179241207e-22
-1.449012919e-23
-1.927229173e-22
-1.081109551e-23
-1.704889389e-22
-7.975146834e-24
-1.509045083e-22
-5.798350105e-24
-1.336811611e-22
-4.136595933e-24
-1.18559512e-22
-2.877086503e-24
-1.053081015e-22
-1.931587184e-24
-9.372168204e-23
-1.231096262e-24
-8.361924868e-23
-7.216461273e-25
-7.484200263e-23
-3.610017489e-25
-6.725136926e-23
-1.1606727e-25
-6.072713976e-23
3.915113026e-26
-5.516577553e-23
1.251471603e-25
-5.047889396e-23
1.581775929e-25
-4.659194167e-23
1.51263371e-25
-4.344305421e-23
1.149898511e-25
-4.098209693e-23
5.81553099e-26
-3.916988034e-23
-1.169233122e-26
-3.797754277e-23
-3.738609384e-23
-1.756362878e-31
-3.171574996e-32
-1.788909954e-28
-5.932048489e-29
-8.665880793e-26
-3.511778438e-26
-6.562570069e-24
-3.093876943e-24
-9.677831797e-23
-5.020608183e-23
1.266532704e-23
-5.717375439e-22
6.053769626e-19
-6.093615286e-19
-2.617264074e-17
-2.014179425e-16
-2.196624956e-21
-9.606125774e-23
-2.070205433e-21
-4.479846578e-22
-1.870443074e-21
-7.852247059e-22
-1.628424858e-21
-1.031432993e-21
-1.374347675e-21
-1.181780298e-21
-1.130549383e-21
-1.24843057e-21
-9.104888973e-22
-1.250403447e-21
-7.203336372e-22
-1.207130361e-21
-5.612196677e-22
-1.135280236e-21
-4.31279166e-22
-1.047741364e-21
-3.271439805e-22
-9.537555726e-22
-2.449304233e-22
-8.595326782e-22
-1.808171617e-22
-7.689709218e-22
-1.313420427e-22
-6.843093385e-22
-9.35219763e-23
-6.066520967e-22
-6.487068478e-23
-5.363610886e-22
-4.336342634e-23
-4.733358986e-22
-2.737869553e-23
-4.172060883e-22
-1.563398422e-23
-3.67459011e-22
-7.124512926e-24
-3.235220592e-22
-1.068960464e-24
-2.848136575e-22
3.136530901e-24
-2.507733517e-22
5.95623472e-24
-2.208782443e-22
7.745431057e-24
-1.946507344e-22
8.774771506e-24
-1.716608837e-22
9.249492067e-24
-1.515255967e-22
9.32445153e-24
-1.339060292e-22
9.11583674e-24
-1.185041224e-22
8.710234284e-24
-1.050588146e-22
8.171636973e-24
-9.334226353e-23
7.54683988e-24
-8.315626547e-23
6.869585874e-24
-7.432896883e-23
6.163743368e-24
-6.67119241e-23
5.4457371e-24
-6.017747859e-23
4.726403981e-24
-5.461650573e-23
4.012407531e-24
-4.993644955e-23
3.307314721e-24
-4.605966017e-23
2.612415814e-24
-4.292199655e-23
1.927350176e-24
-4.047167325e-23
1.250587455e-24
-3.866833118e-23
5.798035626e-25
-3.748231502e-23
-3.68941435e-23
-3.079821952e-29
2.096095503e-31
-3.792207209e-26
-6.070379047e-29
-6.983868541e-24
-1.924838776e-25
-1.344588002e-22
-2.591404157e-23
-2.630572805e-22
-4.750862333e-22
2.823106912e-20
-2.963093688e-20
7.082979222e-18
-7.667523293e-18
-1.176955681e-16
-1.650917816e-15
-2.591371973e-21
-1.830704996e-22
-2.407317152e-21
-6.320459816e-22
-2.116627167e-21
-1.0759285e-21
-1.778832461e-21
-1.369248903e-21
-1.441092473e-21
-1.519548572e-21
-1.132618929e-21
-1.556939378e-21
-8.672987848e-22
-1.515765762e-21
-6.485476923e-22
-1.42593045e-21
-4.737268327e-22
-1.310156824e-21
-3.373243174e-22
-1.184206235e-21
-2.32940516e-22
-1.05820824e-21
-1.543798312e-22
-9.381686121e-22
-9.616108785e-23
-8.272711588e-22
-5.368661095e-23
-7.268714057e-22
-2.323047364e-23
-6.372017634e-22
-1.843653872e-24
-5.578472106e-22
1.276893433e-23
-4.880533876e-22
2.237123163e-23
-4.26918703e-22
2.830586267e-23
-3.735091871e-22
3.158667908e-23
-3.269234532e-22
3.297394895e-23
-2.863263367e-22
3.303401646e-23
-2.509634545e-22
3.21858855e-23
-2.201645644e-22
3.073718944e-23
-1.933406912e-22
2.891174591e-23
-1.699780773e-22
2.68705438e-23
-1.496307957e-22
2.472765843e-23
-1.319130865e-22
2.256227921e-23
-1.164920027e-22
2.04277724e-23
-1.030806581e-22
1.835849086e-23
-9.143219578e-23
1.63748758e-23
-8.133449953e-23
1.448726631e-23
-7.260561495e-23
1.269873234e-23
-6.508982301e-23
1.100717089e-23
-5.86542978e-23
9.406846869e-24
-5.318628061e-23
7.88951633e-24
-4.859070656e-23
6.445236233e-24
-4.47882268e-23
5.062940105e-24
-4.171357695e-23
3.730839932e-24
-3.931425014e-23
2.436700636e-24
-3.754944035e-23
1.16802321e-24
-3.638922842e-23
-3.581398961e-23
-4.939944421e-28
2.185462921e-29
-5.406305344e-25
2.747711807e-26
-7.842754371e-23
6.092945196e-24
-1.225501866e-21
8.151593601e-23
-2.706867348e-21
-1.338510629e-21
-5.661023427e-21
-2.895344105e-20
3.028986819e-18
-1.070861649e-17
-1.683549152e-16
-2.183905756e-15
-3.14052114e-21
-2.913691205e-22
-2.851073798e-21
-9.214998322e-22
-2.409984363e-21
-1.517031749e-21
-1.929281516e-21
-1.849972953e-21
-1.478654041e-21
-1.97020434e-21
-1.091594133e-21
-1.94403456e-21
-7.775766297e-22
-1.829825445e-21
-5.328525876e-22
-1.6707035e-21
-3.478267264e-22
-1.495238427e-21
-2.113562656e-22
-1.320739066e-21
-1.129167701e-22
-1.156716618e-21
-4.348914793e-23
-1.0076715e-21
4.237494325e-24
-8.750793133e-22
3.59850891e-23
-7.587066106e-22
5.612782996e-23
-6.574380548e-22
6.795465535e-23
-5.697733606e-22
7.390826784e-23
-4.941119243e-22
7.578523502e-23
-4.289060119e-22
7.489575486e-23
-3.727352773e-22
7.218755189e-23
-3.243358541e-22
6.834016872e-23
-2.826043901e-22
6.383583954e-23
-2.465891887e-22
5.901231726e-23
-2.15475522e-22
5.4102024e-23
-1.885690801e-22
4.926094859e-23
-1.65279669e-22
4.458991117e-23
-1.4510619e-22
4.015017096e-23
-1.276233199e-22
3.59748532e-23
-1.124699759e-22
3.207729107e-23
-9.933947804e-23
2.845709327e-23
-8.797124389e-23
2.510453588e-23
-7.814382358e-23
2.200371974e-23
-6.966908693e-23
1.91348191e-23
-6.238738788e-23
1.647566151e-23
-5.616355357e-23
1.400281608e-23
-5.088356678e-23
1.169232111e-23
-4.645183181e-23
9.520147576e-24
-4.278893257e-23
7.46247013e-24
-3.982980848e-23
5.495798724e-24
-3.752228809e-23
3.597010299e-24
-3.58259325e-23
1.743310458e-24
-3.47111513e-23
-3.41585629e-23
-8.790244048e-27
3.926241735e-28
-7.161449466e-24
6.455137238e-25
-4.837784926e-22
8.501230074e-23
-3.664697566e-21
7.926301417e-22
-7.266197293e-21
-1.825194751e-22
-1.655093078e-20
-2.197177317e-20
-4.420968545e-18
-6.29077549e-18
-8.966894169e-17
-1.031334583e-15
-3.984744273e-21
-6.13951157e-22
-3.446806694e-21
-1.459443918e-21
-2.743173184e-21
-2.220679082e-21
-2.049842396e-21
-2.543324945e-21
-1.452774666e-21
-2.567300366e-21
-9.77599785e-22
-2.419244722e-21
-6.185970406e-22
-2.188870379e-21
-3.574738027e-22
-1.931875755e-21
-1.733748057e-22
-1.679393177e-21
-4.735628408e-23
-1.44681997e-21
3.612096182e-23
-1.24026276e-21
8.910417791e-23
-1.060729998e-21
1.206157366e-22
-9.066724006e-22
1.372611074e-22
-7.754396092e-22
1.438004899e-22
-6.640710065e-22
1.436237965e-22
-5.696960116e-22
1.39121252e-22
-4.897143248e-22
1.319622629e-22
-4.218573863e-22
1.233006725e-22
-3.641892799e-22
1.139237553e-22
-3.150795642e-22
1.043594275e-22
-2.731655231e-22
9.495296401e-23
-2.373128134e-22
8.592169844e-23
-2.065787619e-22
7.739393071e-23
-1.801800209e-22
6.943654583e-23
-1.574649781e-22
6.20745796e-23
-1.378906828e-22
5.530504235e-23
-1.21003784e-22
4.91066488e-23
-1.064249014e-22
4.34466281e-23
-9.38358679e-23
3.828545051e-23
-8.296934095e-23
3.358006761e-23
-7.36003511e-23
2.928609198e-23
-6.553942857e-23
2.535922125e-23
-5.862701191e-23
2.175612438e-23
-5.272889939e-23
1.843494656e-23
-4.77325499e-23
1.535554437e-23
-4.354407916e-23
1.247953149e-23
-4.008582824e-23
9.770191912e-24
-3.729440702e-23
7.192301683e-24
-3.511913621e-23
4.711888023e-24
-3.352082823e-23
2.295946644e-24
-3.247086125e-23
-3.195051257e-23
-1.330995551e-26
6.014455865e-28
-1.008698845e-23
1.209748372e-24
-4.500676688e-22
1.452346945e-22
-2.555403014e-21
1.387380589e-21
-5.072182684e-21
1.005953912e-21
-2.209185165e-20
-6.224859042e-21
-1.961105924e-18
-4.349353424e-18
-3.788744535e-17
-8.354343742e-16
-5.247128889e-21
-1.297273722e-21
-4.208844271e-21
-2.497735038e-21
-3.066514786e-21
-3.363022396e-21
-2.074447845e-21
-3.535413095e-21
-1.305165843e-21
-3.33661067e-21
-7.475030621e-22
-2.976942789e-21
-3.617576914e-22
-2.574657946e-21
-1.050680792e-22
-2.188614393e-21
5.916787315e-23
-1.843684892e-21
1.591958322e-22
-1.546910323e-21
2.156613963e-22
-1.296797232e-21
2.431749499e-22
-1.088318846e-21
2.518632588e-22
-9.154422523e-22
2.48643999e-22
-7.723079923e-22
2.381884313e-22
-6.537090242e-22
2.236167795e-22
-5.552237212e-22
2.069878312e-22
-4.731903394e-22
1.896384892e-22
-4.046184265e-22
1.72417175e-22
-3.470835783e-22
1.558434459e-22
-2.986264827e-22
1.402168322e-22
-2.576643911e-22
1.25690917e-22
-2.229170081e-22
1.123236849e-22
-1.933460574e-22