/*--------------------------------*- C++ -*----------------------------------*\
  =========                 |
  \\      /  F ield         | OpenFOAM: The Open Source CFD Toolbox
   \\    /   O peration     | Website:  https://openfoam.org
    \\  /    A nd           | Version:  6
     \\/     M anipulation  |
\*---------------------------------------------------------------------------*/
FoamFile
{
    version     2.0;
    format      ascii;
    class       volScalarField;
    location    "0.02";
    object      BeamProfile;
}
// * * * * * * * * * * * * * * * * * * * * * * * * * * * * * * * * * * * * * //

dimensions      [1 -1 -3 0 0 0 0];

internalField   nonuniform List<scalar> 
2500
(
2.453708857e-06
2.388411432e-06
2.329671631e-06
2.277112148e-06
2.230399027e-06
2.189238441e-06
2.15337387e-06
2.122583667e-06
2.096678958e-06
2.075501867e-06
2.058924043e-06
2.046845461e-06
2.039193495e-06
2.035922246e-06
2.037012119e-06
2.04246964e-06
2.052327519e-06
2.06664495e-06
2.085508158e-06
2.109031201e-06
2.137357023e-06
2.170658798e-06
2.209141544e-06
2.253044062e-06
2.302641198e-06
2.358246467e-06
2.42021507e-06
2.488947335e-06
2.564892633e-06
2.648553808e-06
2.740492178e-06
2.841333178e-06
2.951772702e-06
3.072584233e-06
3.204626846e-06
3.348854194e-06
3.506324578e-06
3.678212249e-06
3.865820069e-06
4.070593715e-06
4.294137599e-06
4.538232717e-06
4.804856669e-06
5.096206115e-06
5.414721955e-06
5.7631176e-06
6.144410686e-06
6.561958683e-06
7.019498879e-06
7.521193275e-06
2.82125131e-05
2.752303363e-05
2.690146305e-05
2.634419126e-05
2.584801294e-05
2.541009977e-05
2.502797611e-05
2.469949778e-05
2.442283384e-05
2.419645106e-05
2.401910103e-05
2.388980962e-05
2.380786889e-05
2.377283111e-05
2.378450507e-05
2.384295445e-05
2.39484984e-05
2.410171416e-05
2.430344187e-05
2.455479165e-05
2.485715286e-05
2.521220581e-05
2.562193594e-05
2.608865072e-05
2.661499928e-05
2.72039952e-05
2.785904247e-05
2.858396519e-05
2.938304095e-05
3.026103868e-05
3.1223261e-05
3.227559182e-05
3.342454953e-05
3.467734647e-05
3.604195532e-05
3.752718314e-05
3.914275387e-05
4.089940029e-05
4.280896642e-05
4.48845216e-05
4.714048741e-05
4.95927791e-05
5.225896297e-05
5.51584317e-05
5.831259943e-05
6.17451192e-05
6.548212496e-05
6.955250123e-05
7.398818348e-05
7.88244928e-05
0.0002930003028
0.0002864512106
0.0002805349916
0.0002752207259
0.0002704808772
0.0002662910811
0.0002626299569
0.0002594789448
0.0002568221642
0.0002546462936
0.0002529404702
0.0002516962078
0.0002509073329
0.0002505699391
0.0002506823574
0.0002512451437
0.0002522610833
0.0002537352113
0.0002556748506
0.0002580896668
0.0002609917407
0.0002643956594
0.0002683186268
0.0002727805942
0.0002778044123
0.0002834160064
0.0002896445764
0.0002965228229
0.0003040872021
0.0003123782119
0.0003214407121
0.000331324281
0.0003420836125
0.000353778958
0.0003664766156
0.0003802494742
0.0003951776146
0.0004113489759
0.0004288600933
0.000447816913
0.0004683356948
0.0004905440094
0.000514581841
0.0005406028064
0.0005687755023
0.0005992849948
0.000632334466
0.0006681470333
0.0007069677617
0.0007490658867
0.002748539085
0.002692602377
0.002641971504
0.002596409656
0.00255570533
0.002519670881
0.002488141248
0.002460972831
0.002438042524
0.002419246887
0.002404501451
0.002393740149
0.002386914881
0.00238399519
0.002384968059
0.002389837825
0.002398626206
0.002411372449
0.002428133589
0.002448984831
0.002474020051
0.002503352429
0.002537115203
0.002575462574
0.002618570746
0.002666639123
0.002719891669
0.002778578446
0.002842977332
0.002913395951
0.002990173809
0.003073684675
0.003164339213
0.003262587892
0.003368924196
0.003483888168
0.003608070304
0.003742115846
0.003886729497
0.004042680607
0.004210808866
0.004392030559
0.004587345432
0.004797844229
0.005024716965
0.005269261995
0.005532895977
0.005817164794
0.006123755529
0.006454509615
0.02328859655
0.022859198
0.02246979805
0.02211877699
0.02180468413
0.02152622914
0.02128227434
0.0210718279
0.02089403797
0.02074818762
0.02063369061
0.02055008793
0.0204970451
0.02047435021
0.02048191266
0.02051976263
0.02058805127
0.02068705158
0.02081716001
0.02097889879
0.02117291904
0.02140000455
0.0216610765
0.02195719884
0.02228958468
0.0226596035
0.02306878935
0.02351885007
0.02401167759
0.02454935939
0.02513419119
0.02576869097
0.02645561444
0.02719797201
0.02799904746
0.02886241835
0.02979197841
0.03079196202
0.03186697092
0.03302200347
0.03426248644
0.03559430983
0.03702386474
0.0385580847
0.04020449065
0.04197124003
0.0438671801
0.04590190612
0.04808582466
0.05043022241
0.1782347043
0.1752737811
0.1725838527
0.1701550405
0.167978473
0.1660462402
0.1643513521
0.1628877026
0.1616500382
0.1606339305
0.159835754
0.1592526667
0.1588825962
0.1587242286
0.1587770022
0.1590411041
0.1595174716
0.1602077966
0.1611145349
0.1622409181
0.1635909705
0.16516953
0.1669822728
0.1690357426
0.1713373846
0.1738955842
0.1767197102
0.179820164
0.1832084337
0.1868971544
0.1909001743
0.1952326281
0.1999110169
0.2049532955
0.2103789684
0.2162091936
0.222466896
0.2291768911
0.2363660182
0.2440632862
0.2523000307
0.2611100851
0.2705299647
0.2805990677
0.2913598906
0.3028582628
0.3151435997
0.3282691757
0.3422924198
0.3572752348
1.232107993
1.213780409
1.197101847
1.182018686
1.168482647
1.156450583
1.145884284
1.136750309
1.129019835
1.122668532
1.117676457
1.11402796
1.11171162
1.110720195
1.111050584
1.11270382
1.115685073
1.120003669
1.125673135
1.132711259
1.141140164
1.150986413
1.16228112
1.175060091
1.189363982
1.20523848
1.222734507
1.241908444
1.262822387
1.285544421
1.310148925
1.336716908
1.365336373
1.39610271
1.429119129
1.464497129
1.502356996
1.542828355
1.586050757
1.632174312
1.681360378
1.73378229
1.789626162
1.849091729
1.912393268
1.979760578
2.051440034
2.127695718
2.208810633
2.295087997
7.693302908
7.591550636
7.498803832
7.414804077
7.33931814
7.272137104
7.21307558
7.16197102
7.118683104
7.083093218
7.055104008
7.034639022
7.02164242
7.016078766
7.017932896
7.027209864
7.043934958
7.068153793
7.099932485
7.139357898
7.186537964
7.24160209
7.304701639
7.376010499
7.45572573
7.544068303
7.641283928
7.747643972
7.863446478
7.989017282
8.124711234
8.270913532
8.428041166
8.596544487
8.776908897
8.969656674
9.175348935
9.394587747
9.628018388
9.876331774
10.14026706
10.42061439
10.71821792
11.03397891
11.36885917
11.72388462
12.10014913
12.49881861
12.92113536
13.36842268
43.38947965
42.88328679
42.42118878
42.00208336
41.62497337
41.28896367
40.99325842
40.73715857
40.52005977
40.34145046
40.20091032
40.09810894
40.03280485
40.00484472
40.01416294
40.06078137
40.14480945
40.26644449
40.42597232
40.62376817
40.86029779
41.13611892
41.45188302
41.80833724
42.20632675
42.64679732
43.13079828
43.65948568
44.23412592
44.85609956
45.52690564
46.24816622
47.02163138
47.84918454
48.73284828
49.67479046
50.67733082
51.74294809
52.87428746
54.07416864
55.34559433
56.69175932
58.11606009
59.62210496
61.21372493
62.89498505
64.6701965
66.54392935
68.52102602
70.60661545
221.0363009
218.7826294
216.7223131
214.8512079
213.1655565
211.661979
210.3374651
209.1893658
208.2153881
207.4135882
206.7823675
206.3204681
206.0269704
205.9012898
205.9431764
206.1527134
206.530318
207.076742
207.7930739
208.6807414
209.7415152
210.9775131
212.3912052
213.9854204
215.7633529
217.72857
219.8850214
222.2370482
224.7893941
227.5472164
230.5160992
233.7020661
237.1115956
240.7516363
244.6296235
248.7534974
253.1317217
257.7733041
262.6878173
267.8854215
273.3768889
279.173628
285.2877109
291.7319006
298.5196806
305.665286
313.1837353
321.0908644
329.4033624
338.1388084
1017.068768
1008.102779
999.8949391
992.4315933
985.7003355
979.6899842
974.3905618
969.7932763
965.8905045
962.6757776
960.1437696
958.290287
957.1122605
956.6077401
956.7758904
957.6169898
959.1324307
961.3247223
964.1974949
967.7555074
972.0046557
976.951984
982.6056981
988.9751807
996.0710088
1003.904974
1012.490103
1021.840683
1031.972289
1042.90181
1054.647481
1067.228918
1080.667149
1094.98466
1110.205425
1126.354958
1143.460354
1161.550335
1180.655306
1200.807403
1222.04055
1244.390517
1267.894983
1292.593594
1318.528037
1345.7421
1374.281752
1404.195211
1435.533024
1468.34815
4227.120082
4195.309336
4166.151547
4139.607617
4115.641947
4094.222393
4075.320222
4058.910077
4044.969943
4033.481117
4024.428186
4017.799002
4013.58467
4011.779538
4012.381181
4015.390409
4020.811257
4028.651
4038.920157
4051.632505
4066.8051
4084.458298
4104.615781
4127.304589
4152.555156
4180.401348
4210.880508
4244.033502
4279.904776
4318.542408
4359.998171
4404.327597
4451.590048
4501.848786
4555.171057
4611.628164
4671.295561
4734.252937
4800.584314
4870.378141
4943.7274
5020.729709
5101.48743
5186.107788
5274.702982
5367.390308
5464.292282
5565.53677
5671.257114
5781.592272
15868.88469
15768.49942
15676.3773
15592.42229
15516.54675
15448.67142
15388.72533
15336.64576
15292.37818
15255.8762
15227.10158
15206.02413
15192.62175
15186.88039
15188.79401
15198.36462
15215.60228
15240.52505
15273.15907
15313.53856
15361.70583
15417.71133
15481.61368
15553.47973
15633.38458
15721.41167
15817.65283
15922.20834
16035.18702
16156.70629
16286.89228
16425.87989
16573.81291
16730.8441
16897.13533
17072.85762
17258.19134
17453.32626
17658.46169
17873.80662
18099.57982
18336.01
18583.33591
18841.80652
19111.6811
19393.2294
19686.73178
19992.47935
20310.77409
20641.92903
53809.10592
53528.36106
53270.44222
53035.15146
52822.30783
52631.74735
52463.32294
52316.90442
52192.37847
52089.6486
52008.63514
51949.2752
51911.5227
51895.34829
51900.73941
51927.70025
51976.25175
52046.43164
52138.29439
52251.91129
52387.37042
52544.77666
52724.25179
52925.9344
53149.98004
53396.56116
53665.8672
53958.10462
54273.49691
54612.28465
54974.7256
55361.09464
55771.68392
56206.80284
56666.77813
57151.95387
57662.69154
58199.37007
58762.38585
59352.15282
59969.10245
60613.68378
61286.36347
61987.62576
62717.97255
63477.92336
64268.01534
65088.80327
65940.8595
66824.77398
164805.879
164113.6587
163477.0706
162895.7874
162369.5092
161897.9638
161480.9065
161118.1205
160809.4165
160554.6335
160353.6381
160206.3251
160112.6174
160072.4657
160085.849
160152.7744
160273.2768
160447.4195
160675.2938
160957.0189
161292.7421
161682.6384
162126.9109
162625.7904
163179.5353
163788.4318
164452.7933
165172.9609
165949.3027
166782.2138
167672.1164
168619.4594
169624.7181
170688.3944
171811.0161
172993.137
174235.3364
175538.219
176902.4146
178328.5778
179817.3875
181369.5466
182985.782
184666.8437
186413.5045
188226.56
190106.8274
192055.1458
194072.3751
196159.3957
455928.9572
454435.9816
453061.6917
451805.7021
450667.6586
449647.2384
448744.1509
447958.1378
447288.9733
446736.4649
446300.4529
445980.8111
445777.447
445690.3015
445719.3493
445864.5988
446126.0923
446503.9055
446998.1479
447608.9623
448336.5249
449181.045
450142.7645
451221.958
452418.9322
453734.0257
455167.6084
456720.081
458391.8749
460183.4511
462095.3
464127.9409
466281.9208
468557.8141
470956.2217
473477.7705
476123.112
478892.9222
481787.8998
484808.766
487956.2633
491231.1542
494634.2204
498166.2617
501828.0948
505620.5519
509544.48
513600.7391
517790.2012
522113.7491
1139276.672
1136495.959
1133934.028
1131590.719
1129465.88
1127559.374
1125871.072
1124400.862
1123148.642
1122114.326
1121297.842
1120699.133
1120318.157
1120154.886
1120209.309
1120481.431
1120971.269
1121678.859
1122604.251
1123747.509
1125108.712
1126687.955
1128485.344
1130501
1132735.055
1135187.656
1137858.957
1140749.126
1143858.338
1147186.778
1150734.639
1154502.117
1158489.417
1162696.747
1167124.317
1171772.339
1176641.025
1181730.585
1187041.228
1192573.158
1198326.57
1204301.656
1210498.597
1216917.561
1223558.707
1230422.177
1237508.097
1244816.576
1252347.703
1260101.543
2571394.946
2567026.087
2562997.511
2559309.803
2555963.501
2552959.086
2550296.99
2547977.594
2546001.229
2544368.176
2543078.665
2542132.879
2541530.951
2541272.967
2541358.963
2541788.926
2542562.797
2543680.465
2545141.773
2546946.514
2549094.433
2551585.223
2554418.529
2557593.945
2561111.014
2564969.226
2569168.02
2573706.782
2578584.844
2583801.483
2589355.919
2595247.318
2601474.787
2608037.374
2614934.069
2622163.8
2629725.434
2637617.773
2645839.557
2654389.461
2663266.091
2672467.987
2681993.62
2691841.391
2702009.629
2712496.589
2723300.456
2734419.337
2745851.263
2757594.189
5242228.164
5236726.233
5231648.185
5226995.887
5222771.05
5218975.227
5215609.813
5212676.043
5210174.993
5208107.582
5206474.567
5205276.547
5204513.961
5204187.089
5204296.049
5204840.804
5205821.152
5207236.734
5209087.032
5211371.367
5214088.901
5217238.638
5220819.421
5224829.935
5229268.706
5234134.103
5239424.336
5245137.457
5251271.362
5257823.787
5264792.317
5272174.376
5279967.236
5288168.013
5296773.67
5305781.015
5315186.706
5324987.247
5335178.994
5345758.151
5356720.776
5368062.776
5379779.916
5391867.814
5404321.943
5417137.636
5430310.085
5443834.343
5457705.325
5471917.812
9653184.461
9648430.219
9644036.12
9640005.262
9636340.491
9633044.392
9630119.293
9627567.261
9625390.099
9623589.344
9622166.27
9621121.883
9620456.92
9620171.852
9620266.88
9620741.937
9621596.688
9622830.528
9624442.585
9626431.719
9628796.525
9631535.332
9634646.205
9638126.948
9641975.102
9646187.952
9650762.526
9655695.597
9660983.686
9666623.069
9672609.773
9678939.584
9685608.049
9692610.479
9699941.953
9707597.324
9715571.221
9723858.051
9732452.011
9741347.085
9750537.052
9760015.491
9769775.786
9779811.132
9790114.54
9800678.84
9811496.692
9822560.587
9833862.856
9845395.676
16055833.03
16055382.32
16054954.38
16054552.26
16054178.76
16053836.42
16053527.56
16053254.22
16053018.18
16052820.98
16052663.88
16052547.87
16052473.7
16052441.82
16052452.45
16052505.52
16052600.68
16052737.35
16052914.64
16053131.44
16053386.33
16053677.67
16054003.54
16054361.77
16054749.91
16055165.31
16055605.03
16056065.91
16056544.54
16057037.28
16057540.27
16058049.41
16058560.39
16059068.69
16059569.58
16060058.14
16060529.24
16060977.58
16061397.66
16061783.83
16062130.26
16062430.98
16062679.84
16062870.59
16062996.81
16063051.97
16063029.43
16062922.44
16062724.13
16062427.56
24121406.84
24129695.7
24137332.56
24144317.86
24150652.01
24156335.4
24161368.37
24165751.25
24169484.3
24172567.77
24175001.86
24176786.73
24177922.5
24178409.24
24178247
24177435.75
24175975.44
24173865.97
24171107.22
24167698.98
24163641.05
24158933.17
24153575.03
24147566.31
24140906.63
24133595.6
24125632.8
24117017.77
24107750.05
24097829.14
24087254.53
24076025.71
24064142.15
24051603.32
24038408.68
24024557.71
24010049.9
23994884.73
23979061.73
23962580.43
23945440.4
23927641.23
23909182.57
23890064.08
23870285.49
23849846.59
23828747.21
23806987.24
23784566.66
23761485.51
32732560.3
32752936.26
32771734.12
32788949
32804576.44
32818612.35
32831053.09
32841895.42
32851136.5
32858773.93
32864805.7
32869230.26
32872046.44
32873253.5
32872851.14
32870839.45
32867218.97
32861990.63
32855155.8
32846716.27
32836674.24
32825032.33
32811793.57
32796961.41
32780539.72
32762532.76
32742945.22
32721782.18
32699049.13
32674751.97
32648896.98
32621490.84
32592540.64
32562053.83
32530038.26
32496502.15
32461454.12
32424903.12
32386858.51
32347329.99
32306327.62
32263861.81
32219943.32
32174583.24
32127793.03
32079584.44
32029969.57
31978960.81
31926570.9
31872812.84
40120364.68
40152800.09
40182737.64
40210166.11
40235075.22
40257455.62
40277298.89
40294597.55
40309345.07
40321535.87
40331165.36
40338229.89
40342726.77
40344654.31
40344011.78
40340799.41
40335018.44
40326671.03
40315760.37
40302290.57
40286266.73
40267694.89
40246582.06
40222936.19
40196766.17
40168081.82
40136893.88
40103214.02
40067054.77
40028429.6
39987352.82
39943839.62
39897906.05
39849568.97
39798846.09
39745755.9
39690317.71
39632551.56
39572478.29
39510119.44
39445497.29
39378634.81
39309555.64
39238284.1
39164845.12
39089264.28
39011567.73
38931782.21
38849935
38766053.93
44417828.15
44457868.29
44494832
44528703.73
44559469.23
44587115.5
44611630.87
44633004.93
44651228.63
44666294.22
44678195.28
44686926.76
44692484.94
44694867.43
44694073.24
44690102.69
44682957.49
44672640.66
44659156.62
44642511.09
44622711.16
44599765.23
44573683.03
44544475.6
44512155.28
44476735.7
44438231.76
44396659.62
44352036.67
44304381.53
44253714.03
44200055.17
44143427.12
44083853.19
44021357.78
43955966.42
43887705.68
43816603.17
43742687.52
43665988.33
43586536.17
43504362.53
43419499.78
43331981.18
43241840.8
43149113.52
43053835
42956041.61
42855770.46
42753059.29
44417828.15
44457868.29
44494832
44528703.73
44559469.23
44587115.5
44611630.87
44633004.93
44651228.63
44666294.22
44678195.28
44686926.76
44692484.94
44694867.43
44694073.24
44690102.69
44682957.49
44672640.66
44659156.62
44642511.09
44622711.16
44599765.23
44573683.03
44544475.6
44512155.28
44476735.7
44438231.76
44396659.62
44352036.67
44304381.53
44253714.03
44200055.17
44143427.12
44083853.19
44021357.78
43955966.42
43887705.68
43816603.17
43742687.52
43665988.33
43586536.17
43504362.53
43419499.78
43331981.18
43241840.8
43149113.52
43053835
42956041.61
42855770.46
42753059.29
40120364.68
40152800.09
40182737.64
40210166.11
40235075.22
40257455.62
40277298.89
40294597.55
40309345.07
40321535.87
40331165.36
40338229.89
40342726.77
40344654.31
40344011.78
40340799.41
40335018.44
40326671.03
40315760.37
40302290.57
40286266.73
40267694.89
40246582.06
40222936.19
40196766.17
40168081.82
40136893.88
40103214.02
40067054.77
40028429.6
39987352.82
39943839.62
39897906.05
39849568.97
39798846.09
39745755.9
39690317.71
39632551.56
39572478.29
39510119.44
39445497.29
39378634.81
39309555.64
39238284.1
39164845.12
39089264.28
39011567.73
38931782.21
38849935
38766053.93
32732560.3
32752936.26
32771734.12
32788949
32804576.44
32818612.35
32831053.09
32841895.42
32851136.5
32858773.93
32864805.7
32869230.26
32872046.44
32873253.5
32872851.14
32870839.45
32867218.97
32861990.63
32855155.8
32846716.27
32836674.24
32825032.33
32811793.57
32796961.41
32780539.72
32762532.76
32742945.22
32721782.18
32699049.13
32674751.97
32648896.98
32621490.84
32592540.64
32562053.83
32530038.26
32496502.15
32461454.12
32424903.12
32386858.51
32347329.99
32306327.62
32263861.81
32219943.32
32174583.24
32127793.03
32079584.44
32029969.57
31978960.81
31926570.9
31872812.84
24121406.84
24129695.7
24137332.56
24144317.86
24150652.01
24156335.4
24161368.37
24165751.25
24169484.3
24172567.77
24175001.86
24176786.73
24177922.5
24178409.24
24178247
24177435.75
24175975.44
24173865.97
24171107.22
24167698.98
24163641.05
24158933.17
24153575.03
24147566.31
24140906.63
24133595.6
24125632.8
24117017.77
24107750.05
24097829.14
24087254.53
24076025.71
24064142.15
24051603.32
24038408.68
24024557.71
24010049.9
23994884.73
23979061.73
23962580.43
23945440.4
23927641.23
23909182.57
23890064.08
23870285.49
23849846.59
23828747.21
23806987.24
23784566.66
23761485.51
16055833.03
16055382.32
16054954.38
16054552.26
16054178.76
16053836.42
16053527.56
16053254.22
16053018.18
16052820.98
16052663.88
16052547.87
16052473.7
16052441.82
16052452.45
16052505.52
16052600.68
16052737.35
16052914.64
16053131.44
16053386.33
16053677.67
16054003.54
16054361.77
16054749.91
16055165.31
16055605.03
16056065.91
16056544.54
16057037.28
16057540.27
16058049.41
16058560.39
16059068.69
16059569.58
16060058.14
16060529.24
16060977.58
16061397.66
16061783.83
16062130.26
16062430.98
16062679.84
16062870.59
16062996.81
16063051.97
16063029.43
16062922.44
16062724.13
16062427.56
9653184.461
9648430.219
9644036.12
9640005.262
9636340.491
9633044.392
9630119.293
9627567.261
9625390.099
9623589.344
9622166.27
9621121.883
9620456.92
9620171.852
9620266.88
9620741.937
9621596.688
9622830.528
9624442.585
9626431.719
9628796.525
9631535.332
9634646.205
9638126.948
9641975.102
9646187.952
9650762.526
9655695.597
9660983.686
9666623.069
9672609.773
9678939.584
9685608.049
9692610.479
9699941.953
9707597.324
9715571.221
9723858.051
9732452.011
9741347.085
9750537.052
9760015.491
9769775.786
9779811.132
9790114.54
9800678.84
9811496.692
9822560.587
9833862.856
9845395.676
5242228.164
5236726.233
5231648.185
5226995.887
5222771.05
5218975.227
5215609.813
5212676.043
5210174.993
5208107.582
5206474.567
5205276.547
5204513.961
5204187.089
5204296.049
5204840.804
5205821.152
5207236.734
5209087.032
5211371.367
5214088.901
5217238.638
5220819.421
5224829.935
5229268.706
5234134.103
5239424.336
5245137.457
5251271.362
5257823.787
5264792.317
5272174.376
5279967.236
5288168.013
5296773.67
5305781.015
5315186.706
5324987.247
5335178.994
5345758.151
5356720.776
5368062.776
5379779.916
5391867.814
5404321.943
5417137.636
5430310.085
5443834.343
5457705.325
5471917.812
2571394.946
2567026.087
2562997.511
2559309.803
2555963.501
2552959.086
2550296.99
2547977.594
2546001.229
2544368.176
2543078.665
2542132.879
2541530.951
2541272.967
2541358.963
2541788.926
2542562.797
2543680.465
2545141.773
2546946.514
2549094.433
2551585.223
2554418.529
2557593.945
2561111.014
2564969.226
2569168.02
2573706.782
2578584.844
2583801.483
2589355.919
2595247.318
2601474.787
2608037.374
2614934.069
2622163.8
2629725.434
2637617.773
2645839.557
2654389.461
2663266.091
2672467.987
2681993.62
2691841.391
2702009.629
2712496.589
2723300.456
2734419.337
2745851.263
2757594.189
1139276.672
1136495.959
1133934.028
1131590.719
1129465.88
1127559.374
1125871.072
1124400.862
1123148.642
1122114.326
1121297.842
1120699.133
1120318.157
1120154.886
1120209.309
1120481.431
1120971.269
1121678.859
1122604.251
1123747.509
1125108.712
1126687.955
1128485.344
1130501
1132735.055
1135187.656
1137858.957
1140749.126
1143858.338
1147186.778
1150734.639
1154502.117
1158489.417
1162696.747
1167124.317
1171772.339
1176641.025
1181730.585
1187041.228
1192573.158
1198326.57
1204301.656
1210498.597
1216917.561
1223558.707
1230422.177
1237508.097
1244816.576
1252347.703
1260101.543
455928.9572
454435.9816
453061.6917
451805.7021
450667.6586
449647.2384
448744.1509
447958.1378
447288.9733
446736.4649
446300.4529
445980.8111
445777.447
445690.3015
445719.3493
445864.5988
446126.0923
446503.9055
446998.1479
447608.9623
448336.5249
449181.045
450142.7645
451221.958
452418.9322
453734.0257
455167.6084
456720.081
458391.8749
460183.4511
462095.3
464127.9409
466281.9208
468557.8141
470956.2217
473477.7705
476123.112
478892.9222
481787.8998
484808.766
487956.2633
491231.1542
494634.2204
498166.2617
501828.0948
505620.5519
509544.48
513600.7391
517790.2012
522113.7491
164805.879
164113.6587
163477.0706
162895.7874
162369.5092
161897.9638
161480.9065
161118.1205
160809.4165
160554.6335
160353.6381
160206.3251
160112.6174
160072.4657
160085.849
160152.7744
160273.2768
160447.4195
160675.2938
160957.0189
161292.7421
161682.6384
162126.9109
162625.7904
163179.5353
163788.4318
164452.7933
165172.9609
165949.3027
166782.2138
167672.1164
168619.4594
169624.7181
170688.3944
171811.0161
172993.137
174235.3364
175538.219
176902.4146
178328.5778
179817.3875
181369.5466
182985.782
184666.8437
186413.5045
188226.56
190106.8274
192055.1458
194072.3751
196159.3957
53809.10592
53528.36106
53270.44222
53035.15146
52822.30783
52631.74735
52463.32294
52316.90442
52192.37847
52089.6486
52008.63514
51949.2752
51911.5227
51895.34829
51900.73941
51927.70025
51976.25175
52046.43164
52138.29439
52251.91129
52387.37042
52544.77666
52724.25179
52925.9344
53149.98004
53396.56116
53665.8672
53958.10462
54273.49691
54612.28465
54974.7256
55361.09464
55771.68392
56206.80284
56666.77813
57151.95387
57662.69154
58199.37007
58762.38585
59352.15282
59969.10245
60613.68378
61286.36347
61987.62576
62717.97255
63477.92336
64268.01534
65088.80327
65940.8595
66824.77398
15868.88469
15768.49942
15676.3773
15592.42229
15516.54675
15448.67142
15388.72533
15336.64576
15292.37818
15255.8762
15227.10158
15206.02413
15192.62175
15186.88039
15188.79401
15198.36462
15215.60228
15240.52505
15273.15907
15313.53856
15361.70583
15417.71133
15481.61368
15553.47973
15633.38458
15721.41167
15817.65283
15922.20834
16035.18702
16156.70629
16286.89228
16425.87989
16573.81291
16730.8441
16897.13533
17072.85762
17258.19134
17453.32626
17658.46169
17873.80662
18099.57982
18336.01
18583.33591
18841.80652
19111.6811
19393.2294
19686.73178
19992.47935
20310.77409
20641.92903
4227.120082
4195.309336
4166.151547
4139.607617
4115.641947
4094.222393
4075.320222
4058.910077
4044.969943
4033.481117
4024.428186
4017.799002
4013.58467
4011.779538
4012.381181
4015.390409
4020.811257
4028.651
4038.920157
4051.632505
4066.8051
4084.458298
4104.615781
4127.304589
4152.555156
4180.401348
4210.880508
4244.033502
4279.904776
4318.542408
4359.998171
4404.327597
4451.590048
4501.848786
4555.171057
4611.628164
4671.295561
4734.252937
4800.584314
4870.378141
4943.7274
5020.729709
5101.48743
5186.107788
5274.702982
5367.390308
5464.292282
5565.53677
5671.257114
5781.592272
1017.068768
1008.102779
999.8949391
992.4315933
985.7003355
979.6899842
974.3905618
969.7932763
965.8905045
962.6757776
960.1437696
958.290287
957.1122605
956.6077401
956.7758904
957.6169898
959.1324307
961.3247223
964.1974949
967.7555074
972.0046557
976.951984
982.6056981
988.9751807
996.0710088
1003.904974
1012.490103
1021.840683
1031.972289
1042.90181
1054.647481
1067.228918
1080.667149
1094.98466
1110.205425
1126.354958
1143.460354
1161.550335
1180.655306
1200.807403
1222.04055
1244.390517
1267.894983
1292.593594
1318.528037
1345.7421
1374.281752
1404.195211
1435.533024
1468.34815
221.0363009
218.7826294
216.7223131
214.8512079
213.1655565
211.661979
210.3374651
209.1893658
208.2153881
207.4135882
206.7823675
206.3204681
206.0269704
205.9012898
205.9431764
206.1527134
206.530318
207.076742
207.7930739
208.6807414
209.7415152
210.9775131
212.3912052
213.9854204
215.7633529
217.72857
219.8850214
222.2370482
224.7893941
227.5472164
230.5160992
233.7020661
237.1115956
240.7516363
244.6296235
248.7534974
253.1317217
257.7733041
262.6878173
267.8854215
273.3768889
279.173628
285.2877109
291.7319006
298.5196806
305.665286
313.1837353
321.0908644
329.4033624
338.1388084
43.38947965
42.88328679
42.42118878
42.00208336
41.62497337
41.28896367
40.99325842
40.73715857
40.52005977
40.34145046
40.20091032
40.09810894
40.03280485
40.00484472
40.01416294
40.06078137
40.14480945
40.26644449
40.42597232
40.62376817
40.86029779
41.13611892
41.45188302
41.80833724
42.20632675
42.64679732
43.13079828
43.65948568
44.23412592
44.85609956
45.52690564
46.24816622
47.02163138
47.84918454
48.73284828
49.67479046
50.67733082
51.74294809
52.87428746
54.07416864
55.34559433
56.69175932
58.11606009
59.62210496
61.21372493
62.89498505
64.6701965
66.54392935
68.52102602
70.60661545
7.693302908
7.591550636
7.498803832
7.414804077
7.33931814
7.272137104
7.21307558
7.16197102
7.118683104
7.083093218
7.055104008
7.034639022
7.02164242
7.016078766
7.017932896
7.027209864
7.043934958
7.068153793
7.099932485
7.139357898
7.186537964
7.24160209
7.304701639
7.376010499
7.45572573
7.544068303
7.641283928
7.747643972
7.863446478
7.989017282
8.124711234
8.270913532
8.428041166
8.596544487
8.776908897
8.969656674
9.175348935
9.394587747
9.628018388
9.876331774
10.14026706
10.42061439
10.71821792
11.03397891
11.36885917
11.72388462
12.10014913
12.49881861
12.92113536
13.36842268
1.232107993
1.213780409
1.197101847
1.182018686
1.168482647
1.156450583
1.145884284
1.136750309
1.129019835
1.122668532
1.117676457
1.11402796
1.11171162
1.110720195
1.111050584
1.11270382
1.115685073
1.120003669
1.125673135
1.132711259
1.141140164
1.150986413
1.16228112
1.175060091
1.189363982
1.20523848
1.222734507
1.241908444
1.262822387
1.285544421
1.310148925
1.336716908
1.365336373
1.39610271
1.429119129
1.464497129
1.502356996
1.542828355
1.586050757
1.632174312
1.681360378
1.73378229
1.789626162
1.849091729
1.912393268
1.979760578
2.051440034
2.127695718
2.208810633
2.295087997
0.1782347043
0.1752737811
0.1725838527
0.1701550405
0.167978473
0.1660462402
0.1643513521
0.1628877026
0.1616500382
0.1606339305
0.159835754
0.1592526667
0.1588825962
0.1587242286
0.1587770022
0.1590411041
0.1595174716
0.1602077966
0.1611145349
0.1622409181
0.1635909705
0.16516953
0.1669822728
0.1690357426
0.1713373846
0.1738955842
0.1767197102
0.179820164
0.1832084337
0.1868971544
0.1909001743
0.1952326281
0.1999110169
0.2049532955
0.2103789684
0.2162091936
0.222466896
0.2291768911
0.2363660182
0.2440632862
0.2523000307
0.2611100851
0.2705299647
0.2805990677
0.2913598906
0.3028582628
0.3151435997
0.3282691757
0.3422924198
0.3572752348
0.02328859655
0.022859198
0.02246979805
0.02211877699
0.02180468413
0.02152622914
0.02128227434
0.0210718279
0.02089403797
0.02074818762
0.02063369061
0.02055008793
0.0204970451
0.02047435021
0.02048191266
0.02051976263
0.02058805127
0.02068705158
0.02081716001
0.02097889879
0.02117291904
0.02140000455
0.0216610765
0.02195719884
0.02228958468
0.0226596035
0.02306878935
0.02351885007
0.02401167759
0.02454935939
0.02513419119
0.02576869097
0.02645561444
0.02719797201
0.02799904746
0.02886241835
0.02979197841
0.03079196202
0.03186697092
0.03302200347
0.03426248644
0.03559430983
0.03702386474
0.0385580847
0.04020449065
0.04197124003
0.0438671801
0.04590190612
0.04808582466
0.05043022241
0.002748539085
0.002692602377
0.002641971504
0.002596409656
0.00255570533
0.002519670881
0.002488141248
0.002460972831
0.002438042524
0.002419246887
0.002404501451
0.002393740149
0.002386914881
0.00238399519
0.002384968059
0.002389837825
0.002398626206
0.002411372449
0.002428133589
0.002448984831
0.002474020051
0.002503352429
0.002537115203
0.002575462574
0.002618570746
0.002666639123
0.002719891669
0.002778578446
0.002842977332
0.002913395951
0.002990173809
0.003073684675
0.003164339213
0.003262587892
0.003368924196
0.003483888168
0.003608070304
0.003742115846
0.003886729497
0.004042680607
0.004210808866
0.004392030559
0.004587345432
0.004797844229
0.005024716965
0.005269261995
0.005532895977
0.005817164794
0.006123755529
0.006454509615
0.0002930003028
0.0002864512106
0.0002805349916
0.0002752207259
0.0002704808772
0.0002662910811
0.0002626299569
0.0002594789448
0.0002568221642
0.0002546462936
0.0002529404702
0.0002516962078
0.0002509073329