/*--------------------------------*- C++ -*----------------------------------*\
  =========                 |
  \\      /  F ield         | OpenFOAM: The Open Source CFD Toolbox
   \\    /   O peration     | Website:  https://openfoam.org
    \\  /    A nd           | Version:  6
     \\/     M anipulation  |
\*---------------------------------------------------------------------------*/
FoamFile
{
    version     2.0;
    format      ascii;
    class       volVectorField;
    location    "0.02";
    object      gradT;
}
// * * * * * * * * * * * * * * * * * * * * * * * * * * * * * * * * * * * * * //

dimensions      [0 -1 0 1 0 0 0];

internalField   nonuniform List<vector> 
2500
(
(0 0.0007712122518 2.23937964)
(0 -0.006175071262 2.247247595)
(0 -0.03434607517 2.222741695)
(0 -0.08761955604 2.105499161)
(0 -0.1600781795 1.836400978)
(0 -0.2364182262 1.381930511)
(0 -0.295788065 0.7545686027)
(0 -0.1631731535 0.01992697929)
(0 -0.004254484146 0.001723293566)
(0 -0.0003554640585 0.0002663095585)
(0 -5.266883806e-05 4.286885509e-05)
(0 -7.851948364e-06 7.556286808e-06)
(0 -1.244526686e-06 1.439344264e-06)
(0 -2.1458168e-07 2.773091755e-07)
(0 -3.872822864e-08 5.011611605e-08)
(0 -5.976288017e-09 7.388009595e-09)
(0 -1.647008509e-09 6.117460175e-10)
(0 -1.035262491e-09 -2.399926684e-09)
(0 2.352869298e-10 -1.599951123e-09)
(0 -4.705738596e-11 -1.694065895e-09)
(0 -4.705738596e-11 -1.835238052e-09)
(0 -1.411721579e-10 -1.929352824e-09)
(0 2.352869298e-10 -2.023467596e-09)
(0 4.705738596e-11 -1.458778965e-09)
(0 2.352869298e-10 -1.694065895e-09)
(0 9.411477192e-11 -1.223492035e-09)
(0 -1.411721579e-10 -1.882295438e-09)
(0 -3.764590877e-10 -1.411721579e-09)
(0 4.705738596e-11 -2.870500543e-09)
(0 4.705738596e-11 -2.541098842e-09)
(0 -9.411477192e-11 -2.870500543e-09)
(0 8.470329473e-10 -2.352869298e-09)
(0 7.999755613e-10 -1.694065895e-09)
(0 -5.646886315e-10 -1.176434649e-09)
(0 -9.411477192e-10 -1.882295438e-09)
(0 5.176312455e-10 -2.352869298e-09)
(0 3.294017017e-10 -1.647008509e-09)
(0 2.823443158e-10 -1.835238052e-09)
(0 6.588034034e-10 -7.529181753e-10)
(0 -3.764590877e-10 -9.411477192e-10)
(0 0 -1.129377263e-09)
(0 -1.882295438e-10 -9.411477192e-10)
(0 -9.882051051e-10 -1.929352824e-09)
(0 2.823443158e-10 -2.070524982e-09)
(0 3.764590877e-10 -1.694065895e-09)
(0 2.823443158e-10 -1.599951123e-09)
(0 1.411721579e-10 -9.882051051e-10)
(0 -1.411721579e-10 -8.470329473e-10)
(0 7.529181753e-10 -1.129377263e-09)
(0 9.411477192e-11 -9.411477192e-10)
(0 0.007096742729 3.413468305)
(0 -0.01046287434 3.446662126)
(0 -0.1074023595 3.442971613)
(0 -0.2987211603 3.298163207)
(0 -0.5634904699 2.907658313)
(0 -0.8454141494 2.207671632)
(0 -1.066215467 1.212703273)
(0 -0.5896721555 0.03228870913)
(0 -0.01540618549 0.003025882385)
(0 -0.001324960747 0.000535089771)
(0 -0.0002060844807 0.000106300235)
(0 -3.357751541e-05 2.347476521e-05)
(0 -6.034450946e-06 5.283320951e-06)
(0 -1.174599411e-06 1.12438918e-06)
(0 -2.312399946e-07 2.193815333e-07)
(0 -4.352808201e-08 3.929291728e-08)
(0 -8.140927771e-09 5.741001087e-09)
(0 -1.176434649e-09 1.599951123e-09)
(0 4.705738596e-10 4.705738596e-11)
(0 -2.352869298e-10 6.117460175e-10)
(0 -9.411477192e-11 4.705738596e-10)
(0 -9.411477192e-11 7.529181753e-10)
(0 2.352869298e-10 5.176312455e-10)
(0 2.352869298e-10 3.764590877e-10)
(0 0 2.823443158e-10)
(0 -2.823443158e-10 2.823443158e-10)
(0 0 -5.176312455e-10)
(0 -5.646886315e-10 2.823443158e-10)
(0 -1.176434649e-09 -4.235164736e-10)
(0 -9.411477192e-11 -7.999755613e-10)
(0 2.352869298e-10 -4.705738596e-10)
(0 3.764590877e-10 -4.705738596e-10)
(0 3.764590877e-10 -6.117460175e-10)
(0 3.764590877e-10 -1.270549421e-09)
(0 -1.882295438e-10 -4.705738596e-11)
(0 -3.294017017e-10 -1.411721579e-10)
(0 2.352869298e-10 -8.940903332e-10)
(0 5.646886315e-10 -1.882295438e-10)
(0 1.882295438e-10 -9.411477192e-10)
(0 0 -9.411477192e-11)
(0 9.411477192e-11 -3.294017017e-10)
(0 -6.588034034e-10 -7.529181753e-10)
(0 -1.882295438e-10 -1.882295438e-10)
(0 0 9.411477192e-11)
(0 9.411477192e-11 -8.940903332e-10)
(0 3.764590877e-10 -5.176312455e-10)
(0 6.588034034e-10 -9.882051051e-10)
(0 0 -4.235164736e-10)
(0 -8.470329473e-10 -6.117460175e-10)
(0 1.97641021e-09 -1.223492035e-09)
(0 0.03396503331 6.26384457)
(0 0.0233282359 6.374671867)
(0 -0.1828449951 6.447701766)
(0 -0.6229328558 6.263879383)
(0 -1.250569754 5.596918472)
(0 -1.931373266 4.297651034)
(0 -2.471170988 2.379087352)
(0 -1.372850544 0.06426434039)
(0 -0.03600810355 0.006829657241)
(0 -0.003275046161 0.001477126263)
(0 -0.0005642838439 0.0003711585908)
(0 -0.0001088689094 9.736229624e-05)
(0 -2.359485566e-05 2.403173644e-05)
(0 -5.278568155e-06 5.336072281e-06)
(0 -1.123824491e-06 1.055685397e-06)
(0 -2.196168203e-07 1.873354535e-07)
(0 -3.933997466e-08 3.039907133e-08)
(0 -6.682148806e-09 4.65868121e-09)
(0 -7.999755613e-10 7.058607894e-10)
(0 4.235164736e-10 1.411721579e-10)
(0 0 7.999755613e-10)
(0 -9.411477192e-11 5.176312455e-10)
(0 -1.411721579e-10 4.705738596e-10)
(0 -9.411477192e-11 0)
(0 1.882295438e-10 1.223492035e-09)
(0 -7.529181753e-10 9.411477192e-11)
(0 -2.352869298e-10 -5.646886315e-10)
(0 -2.823443158e-10 -1.129377263e-09)
(0 -1.035262491e-09 -2.823443158e-10)
(0 4.705738596e-11 -4.705738596e-11)
(0 2.352869298e-10 0)
(0 6.588034034e-10 -1.411721579e-10)
(0 0 2.352869298e-10)
(0 0 -3.764590877e-10)
(0 1.882295438e-10 3.764590877e-10)
(0 -2.823443158e-10 2.352869298e-10)
(0 2.823443158e-10 2.823443158e-10)
(0 2.352869298e-10 4.705738596e-11)
(0 7.999755613e-10 -3.764590877e-10)
(0 1.882295438e-10 5.176312455e-10)
(0 -7.058607894e-10 6.588034034e-10)
(0 0 1.129377263e-09)
(0 -9.411477192e-11 7.999755613e-10)
(0 -4.235164736e-10 4.705738596e-11)
(0 -2.823443158e-10 3.294017017e-10)
(0 2.352869298e-10 -4.235164736e-10)
(0 1.882295438e-10 -5.176312455e-10)
(0 2.352869298e-10 -1.411721579e-10)
(0 0 8.470329473e-10)
(0 1.882295438e-09 1.647008509e-09)
(0 0.11792404 11.94819887)
(0 0.1733943223 12.2607127)
(0 -0.2181948434 12.56441478)
(0 -1.149504455 12.38797729)
(0 -2.529718819 11.22846604)
(0 -4.063245268 8.72830461)
(0 -5.299602161 4.87446792)
(0 -2.961929851 0.1351130203)
(0 -0.07819339967 0.01732753626)
(0 -0.007783459397 0.004778323625)
(0 -0.001585848495 0.001459434615)
(0 -0.0003807043227 0.0004240434693)
(0 -9.806072196e-05 0.0001093332717)
(0 -2.415060339e-05 2.46839518e-05)
(0 -5.379976822e-06 4.910391167e-06)
(0 -1.06876735e-06 8.697146073e-07)
(0 -1.908177001e-07 1.392428051e-07)
(0 -3.091670257e-08 2.056407766e-08)
(0 -4.046935192e-09 3.670476105e-09)
(0 -4.705738596e-11 1.270549421e-09)
(0 2.352869298e-10 4.705738596e-10)
(0 -3.764590877e-10 4.705738596e-10)
(0 -2.823443158e-10 3.294017017e-10)
(0 9.411477192e-10 1.270549421e-09)
(0 9.411477192e-11 9.882051051e-10)
(0 -2.070524982e-09 9.411477192e-10)
(0 -1.176434649e-09 4.705738596e-10)
(0 -2.352869298e-10 -8.940903332e-10)
(0 -1.882295438e-10 -9.411477192e-11)
(0 1.882295438e-10 0)
(0 1.882295438e-10 -3.294017017e-10)
(0 6.117460175e-10 -1.411721579e-10)
(0 1.411721579e-10 -9.411477192e-11)
(0 5.646886315e-10 0)
(0 3.764590877e-10 1.882295438e-10)
(0 -4.705738596e-10 1.882295438e-10)
(0 0 1.411721579e-10)
(0 0 0)
(0 6.588034034e-10 1.411721579e-10)
(0 1.035262491e-09 -1.129377263e-09)
(0 7.058607894e-10 1.411721579e-10)
(0 -5.176312455e-10 -9.411477192e-11)
(0 -1.270549421e-09 1.882295438e-10)
(0 -5.646886315e-10 -4.705738596e-11)
(0 -3.294017017e-10 1.882295438e-10)
(0 -4.705738596e-10 -1.882295438e-10)
(0 9.411477192e-10 4.705738596e-11)
(0 1.364664193e-09 5.646886315e-10)
(0 8.940903332e-10 -9.411477192e-11)
(0 -4.705738596e-10 8.940903332e-10)
(0 0.3464788668 22.60612647)
(0 0.6395441491 23.40800492)
(0 -0.05558040629 24.33161295)
(0 -1.958881594 24.3813525)
(0 -4.910242434 22.45404391)
(0 -8.285371389 17.70098707)
(0 -11.06436258 9.990697127)
(0 -6.229990928 0.2908693439)
(0 -0.1663428003 0.04904754554)
(0 -0.01914314775 0.01716770081)
(0 -0.004918563953 0.005972639705)
(0 -0.0014589703 0.001828086741)
(0 -0.0004229543261 0.0004798310827)
(0 -0.0001097014487 0.0001088173345)
(0 -2.49381558e-05 2.163317442e-05)
(0 -4.990718125e-06 3.823883183e-06)
(0 -8.885375617e-07 6.083108283e-07)
(0 -1.422544778e-07 8.875022992e-08)
(0 -2.004644642e-08 1.134083002e-08)
(0 -2.823443158e-09 2.117582368e-09)
(0 -7.999755613e-10 4.235164736e-10)
(0 -2.352869298e-10 6.588034034e-10)
(0 7.058607894e-10 4.705738596e-10)
(0 5.176312455e-10 1.082319877e-09)
(0 -1.882295438e-10 4.705738596e-11)
(0 -1.223492035e-09 9.411477192e-10)
(0 -2.023467596e-09 5.176312455e-10)
(0 -8.940903332e-10 8.470329473e-10)
(0 -1.411721579e-10 9.411477192e-11)
(0 -1.411721579e-10 3.764590877e-10)
(0 9.411477192e-11 -2.823443158e-10)
(0 8.940903332e-10 -1.882295438e-10)
(0 1.411721579e-10 -5.646886315e-10)
(0 2.823443158e-10 4.705738596e-11)
(0 3.764590877e-10 -4.705738596e-10)
(0 -2.823443158e-10 -2.823443158e-10)
(0 4.705738596e-11 -2.352869298e-10)
(0 1.882295438e-10 -9.411477192e-11)
(0 -3.294017017e-10 -2.352869298e-10)
(0 1.882295438e-10 -9.411477192e-10)
(0 3.294017017e-10 -7.058607894e-10)
(0 0 -1.223492035e-09)
(0 0 -4.705738596e-10)
(0 -3.764590877e-10 -2.823443158e-10)
(0 -3.764590877e-10 -2.823443158e-10)
(0 4.705738596e-11 9.411477192e-11)
(0 9.411477192e-10 1.411721579e-10)
(0 1.411721579e-10 0)
(0 2.823443158e-10 -1.176434649e-09)
(0 1.082319877e-09 -1.694065895e-09)
(0 0.9198024934 41.87990058)
(0 1.89888081 43.80658923)
(0 0.75515274 46.26466748)
(0 -3.027073501 47.21172817)
(0 -9.210084253 44.28137146)
(0 -16.52659205 35.49145456)
(0 -22.70971989 20.29981301)
(0 -12.90357943 0.6476008055)
(0 -0.3518950427 0.1548351378)
(0 -0.05085836532 0.06504680275)
(0 -0.01692546252 0.02428414637)
(0 -0.005873512898 0.007595281805)
(0 -0.001817330129 0.002002317372)
(0 -0.0004823485587 0.0004533744321)
(0 -0.0001103733341 8.980718586e-05)
(0 -2.209367799e-05 1.580864647e-05)
(0 -3.925950653e-06 2.505005827e-06)
(0 -6.278396435e-07 3.613066094e-07)
(0 -9.067958274e-08 4.799853368e-08)
(0 -1.101142831e-08 5.505714157e-09)
(0 -1.223492035e-09 1.505836351e-09)
(0 -3.294017017e-10 1.082319877e-09)
(0 9.411477192e-11 7.058607894e-10)
(0 5.176312455e-10 -9.411477192e-11)
(0 0 6.117460175e-10)
(0 -1.599951123e-09 0)
(0 -1.317606807e-09 -1.411721579e-10)
(0 -7.058607894e-10 -1.882295438e-10)
(0 -6.117460175e-10 9.411477192e-11)
(0 -1.882295438e-10 -9.411477192e-11)
(0 -4.235164736e-10 2.823443158e-10)
(0 4.235164736e-10 -9.411477192e-11)
(0 3.764590877e-10 9.411477192e-11)
(0 5.646886315e-10 -2.352869298e-10)
(0 4.705738596e-11 -2.352869298e-10)
(0 -2.823443158e-10 0)
(0 2.823443158e-10 -1.882295438e-10)
(0 0 3.294017017e-10)
(0 -1.882295438e-10 -4.705738596e-11)
(0 6.117460175e-10 8.940903332e-10)
(0 3.764590877e-10 -1.411721579e-10)
(0 -2.352869298e-10 0)
(0 -3.764590877e-10 -1.882295438e-10)
(0 -4.235164736e-10 -2.352869298e-10)
(0 0 -1.882295438e-10)
(0 4.705738596e-11 1.411721579e-10)
(0 8.470329473e-10 -4.705738596e-11)
(0 0 2.823443158e-10)
(0 -7.999755613e-10 -3.294017017e-10)
(0 2.44698407e-09 0)
(0 2.27316752 75.62667578)
(0 5.024311045 80.01269398)
(0 3.349558531 86.02680259)
(0 -3.942177605 89.62404282)
(0 -16.63051604 85.86237567)
(0 -32.26692984 70.19844908)
(0 -45.90821633 40.83913075)
(0 -26.3749688 1.524282202)
(0 -0.748896803 0.5285406838)
(0 -0.1496941391 0.2478199927)
(0 -0.0623700849 0.09537118629)
(0 -0.02374079925 0.02997728149)
(0 -0.007564861746 0.007882524135)
(0 -0.002022211682 0.001776499988)
(0 -0.0004625038944 0.0003501276568)
(0 -9.229294522e-05 6.132974995e-05)
(0 -1.633583036e-05 9.673445659e-06)
(0 -2.599355886e-06 1.388428173e-06)
(0 -3.758002843e-07 1.839943791e-07)
(0 -4.92690831e-08 2.216402879e-08)
(0 -5.082197684e-09 2.635213614e-09)
(0 -1.129377263e-09 4.235164736e-10)
(0 -5.176312455e-10 0)
(0 4.705738596e-10 1.882295438e-10)
(0 -9.411477192e-11 1.411721579e-10)
(0 -2.023467596e-09 -3.764590877e-10)
(0 -2.21169714e-09 -2.352869298e-10)
(0 -7.058607894e-10 -8.470329473e-10)
(0 0 0)
(0 9.411477192e-11 -4.235164736e-10)
(0 9.411477192e-11 2.823443158e-10)
(0 6.588034034e-10 1.882295438e-10)
(0 0 2.352869298e-10)
(0 -4.705738596e-11 -1.882295438e-10)
(0 6.117460175e-10 -5.176312455e-10)
(0 -1.882295438e-10 0)
(0 3.764590877e-10 2.823443158e-10)
(0 3.294017017e-10 2.352869298e-10)
(0 2.352869298e-10 3.294017017e-10)
(0 4.705738596e-11 8.470329473e-10)
(0 -5.646886315e-10 -3.294017017e-10)
(0 -4.705738596e-11 -9.411477192e-11)
(0 -2.352869298e-10 6.588034034e-10)
(0 -3.764590877e-10 2.352869298e-10)
(0 0 1.882295438e-10)
(0 2.352869298e-10 0)
(0 1.035262491e-09 2.352869298e-10)
(0 -1.411721579e-10 1.882295438e-10)
(0 0 3.294017017e-10)
(0 1.411721579e-09 5.646886315e-10)
(0 5.305820691 132.7287433)
(0 12.29900762 142.2328287)
(0 10.36650158 156.023729)
(0 -3.191500422 166.4177121)
(0 -28.63567798 163.41593)
(0 -61.54983697 136.8317211)
(0 -91.38388677 81.36993991)
(0 -53.2141695 3.856626644)
(0 -1.628357252 1.860811992)
(0 -0.4840278628 0.9184538589)
(0 -0.2347681738 0.3559919885)
(0 -0.09336217505 0.1114685333)
(0 -0.03001811167 0.02913054961)
(0 -0.008014745037 0.006524319887)
(0 -0.001825543478 0.001278455203)
(0 -0.0003625479832 0.000222769571)
(0 -6.386722537e-05 3.49692376e-05)
(0 -1.011724387e-05 4.997823791e-06)
(0 -1.456990784e-06 6.55462329e-07)
(0 -1.924647086e-07 7.938581011e-08)
(0 -2.291694696e-08 7.717411297e-09)
(0 -2.917557929e-09 2.823443158e-10)
(0 -9.411477192e-11 -1.035262491e-09)
(0 6.117460175e-10 -5.646886315e-10)
(0 -6.117460175e-10 -1.270549421e-09)
(0 -1.97641021e-09 -1.129377263e-09)
(0 -1.694065895e-09 -6.117460175e-10)
(0 -4.705738596e-10 4.705738596e-11)
(0 -1.882295438e-10 -4.705738596e-11)
(0 -4.705738596e-11 9.411477192e-11)
(0 2.352869298e-10 0)
(0 3.294017017e-10 0)
(0 4.705738596e-11 7.058607894e-10)
(0 -9.411477192e-11 4.705738596e-11)
(0 1.882295438e-10 -2.352869298e-10)
(0 5.646886315e-10 0)
(0 3.764590877e-10 2.823443158e-10)
(0 4.705738596e-11 -3.294017017e-10)
(0 4.235164736e-10 -4.705738596e-11)
(0 0 -1.082319877e-09)
(0 -5.176312455e-10 -9.411477192e-11)
(0 6.588034034e-10 9.411477192e-11)
(0 0 -1.411721579e-10)
(0 -8.470329473e-10 2.823443158e-10)
(0 -2.352869298e-10 1.882295438e-10)
(0 9.411477192e-11 1.176434649e-09)
(0 1.035262491e-09 1.035262491e-09)
(0 1.411721579e-10 -6.117460175e-10)
(0 -4.705738596e-10 3.294017017e-10)
(0 1.552893737e-09 -7.529181753e-10)
(0 11.77725286 225.7137444)
(0 28.31929676 245.335178)
(0 27.534442 275.2142258)
(0 3.450023362 301.4691515)
(0 -46.21650703 304.6350219)
(0 -114.3129199 262.4917416)
(0 -178.8833108 160.6030202)
(0 -105.8840967 10.44957646)
(0 -3.687069588 6.484548557)
(0 -1.654514143 3.245829772)
(0 -0.8693554105 1.25119636)
(0 -0.3506022381 0.3884724975)
(0 -0.1125090751 0.1007074702)
(0 -0.02987430614 0.02239659053)
(0 -0.006764054304 0.00436184689)
(0 -0.001335778722 0.0007559796818)
(0 -0.0002341076246 0.0001181080154)
(0 -3.691317821e-05 1.680856886e-05)
(0 -5.294285322e-06 2.197579924e-06)
(0 -6.970140008e-07 2.655918864e-07)
(0 -8.427977825e-08 2.922263668e-08)
(0 -9.834993665e-09 1.411721579e-09)
(0 -1.317606807e-09 1.411721579e-10)
(0 2.823443158e-10 -1.270549421e-09)
(0 -6.588034034e-10 -1.129377263e-09)
(0 -1.364664193e-09 -6.117460175e-10)
(0 -1.129377263e-09 4.235164736e-10)
(0 -1.411721579e-10 7.058607894e-10)
(0 9.411477192e-11 9.882051051e-10)
(0 1.882295438e-10 0)
(0 0 9.411477192e-11)
(0 1.270549421e-09 -9.411477192e-11)
(0 4.705738596e-11 1.270549421e-09)
(0 -1.035262491e-09 -4.705738596e-11)
(0 6.117460175e-10 -4.705738596e-11)
(0 3.764590877e-10 3.294017017e-10)
(0 9.411477192e-11 -2.823443158e-10)
(0 0 -1.411721579e-10)
(0 -5.176312455e-10 -9.411477192e-11)
(0 0 4.705738596e-11)
(0 5.646886315e-10 4.705738596e-11)
(0 0 1.411721579e-10)
(0 -9.411477192e-11 -9.882051051e-10)
(0 0 -2.352869298e-10)
(0 8.940903332e-10 6.588034034e-10)
(0 1.035262491e-09 0)
(0 -7.529181753e-10 -4.705738596e-11)
(0 -8.940903332e-10 0)
(0 -1.411721579e-10 -2.823443158e-10)
(0 1.882295438e-09 -7.529181753e-10)
(0 24.92725433 370.5691004)
(0 61.79948903 409.1066828)
(0 66.50047508 470.4158074)
(0 26.22929569 530.8997611)
(0 -67.61308797 554.4394667)
(0 -205.5818387 494.349425)
(0 -343.4260519 313.9636326)
(0 -207.3326412 29.54524948)
(0 -8.832103941 21.757482)
(0 -5.71738006 10.81061402)
(0 -3.092125448 4.1163679)
(0 -1.243851064 1.264148241)
(0 -0.3960940187 0.3247718204)
(0 -0.1043603683 0.07169073978)
(0 -0.02346615433 0.01387505076)
(0 -0.004606286905 0.002391904388)
(0 -0.0008030384324 0.0003719404963)
(0 -0.0001260276323 5.271123677e-05)
(0 -1.799982659e-05 6.866943161e-06)
(0 -2.360821996e-06 8.281629355e-07)
(0 -2.870971117e-07 9.28442225e-08)
(0 -3.199902245e-08 8.470329473e-09)
(0 -2.823443158e-09 1.694065895e-09)
(0 -6.588034034e-10 -1.882295438e-10)
(0 0 -9.411477192e-11)
(0 -3.764590877e-10 -1.411721579e-10)
(0 -3.764590877e-10 8.940903332e-10)
(0 9.411477192e-11 1.176434649e-09)
(0 -8.940903332e-10 9.411477192e-10)
(0 -9.411477192e-10 -4.705738596e-11)
(0 9.411477192e-11 -9.411477192e-11)
(0 1.599951123e-09 9.411477192e-11)
(0 9.411477192e-11 1.882295438e-10)
(0 -1.458778965e-09 9.411477192e-11)
(0 5.646886315e-10 2.352869298e-10)
(0 2.352869298e-10 0)
(0 4.705738596e-11 -9.411477192e-11)
(0 2.352869298e-10 4.705738596e-11)
(0 5.646886315e-10 4.705738596e-11)
(0 1.411721579e-10 1.411721579e-10)
(0 -4.235164736e-10 1.411721579e-10)
(0 -3.764590877e-10 -9.411477192e-11)
(0 -3.764590877e-10 -1.411721579e-10)
(0 7.999755613e-10 -4.705738596e-11)
(0 0 -9.411477192e-11)
(0 -6.117460175e-10 -1.317606807e-09)
(0 1.035262491e-09 -1.035262491e-09)
(0 -1.411721579e-10 6.117460175e-10)
(0 -1.129377263e-09 -9.411477192e-11)
(0 2.541098842e-09 9.411477192e-11)
(0 50.3148352 584.7209881)
(0 128.1660037 656.5021419)
(0 149.3275203 775.4902189)
(0 87.47368275 904.3754811)
(0 -82.76684315 980.1162679)
(0 -354.788754 910.2028552)
(0 -643.6874863 607.8901817)
(0 -398.0902474 84.17570982)
(0 -22.42170505 69.10829374)
(0 -19.29562824 33.68616602)
(0 -10.41582119 12.62375785)
(0 -4.142198318 3.829625986)
(0 -1.304966576 0.9745638592)
(0 -0.3407710758 0.2135007462)
(0 -0.0760628897 0.04106373565)
(0 -0.01483888904 0.007041624554)
(0 -0.002573300729 0.00108996562)
(0 -0.0004019867313 0.0001538442413)
(0 -5.717740621e-05 1.996866056e-05)
(0 -7.471159996e-06 2.400773717e-06)
(0 -9.039723843e-07 2.690741329e-07)
(0 -1.009380929e-07 2.856383328e-08)
(0 -1.002322321e-08 2.117582368e-09)
(0 -1.505836351e-09 3.764590877e-10)
(0 -5.176312455e-10 0)
(0 -3.764590877e-10 -2.352869298e-10)
(0 1.411721579e-10 1.411721579e-10)
(0 -4.705738596e-11 1.411721579e-10)
(0 -1.129377263e-09 -7.058607894e-10)
(0 -8.940903332e-10 4.235164736e-10)
(0 1.411721579e-10 -9.411477192e-11)
(0 1.599951123e-09 1.411721579e-10)
(0 4.705738596e-11 0)
(0 -9.411477192e-10 9.411477192e-11)
(0 4.705738596e-10 1.411721579e-10)
(0 0 2.352869298e-10)
(0 4.705738596e-11 2.823443158e-10)
(0 1.882295438e-10 4.705738596e-11)
(0 -3.764590877e-10 4.705738596e-11)
(0 4.705738596e-11 -1.411721579e-10)
(0 3.294017017e-10 -1.411721579e-10)
(0 -2.823443158e-10 9.411477192e-11)
(0 0 4.235164736e-10)
(0 4.705738596e-11 4.705738596e-10)
(0 -3.764590877e-10 -4.705738596e-10)
(0 4.705738596e-11 2.352869298e-10)
(0 1.223492035e-09 4.705738596e-10)
(0 1.411721579e-10 -9.411477192e-11)
(0 -7.529181753e-10 -3.764590877e-10)
(0 1.835238052e-09 -2.823443158e-10)
(0 96.70840813 881.8636411)
(0 252.5687198 1008.147071)
(0 314.3738143 1225.685739)
(0 230.8553447 1480.025012)
(0 -61.78571393 1670.170514)
(0 -577.8079249 1629.87505)
(0 -1169.453197 1167.206009)
(0 -746.1145292 234.3042077)
(0 -59.32164774 205.6119654)
(0 -62.20191594 97.70285244)
(0 -32.94866548 35.96538861)
(0 -12.89304506 10.77125944)
(0 -4.012219258 2.714717507)
(0 -1.037860492 0.5902409994)
(0 -0.229925276 0.1128293367)
(0 -0.04458005689 0.01924877102)
(0 -0.007690818745 0.002966346368)
(0 -0.001196024639 0.0004170613767)
(0 -0.0001694432942 5.394541083e-05)
(0 -2.206036137e-05 6.464884855e-06)
(0 -2.659259938e-06 7.222838171e-07)
(0 -2.990026304e-07 7.538593231e-08)
(0 -3.101081735e-08 5.929230631e-09)
(0 -2.776385772e-09 2.823443158e-10)
(0 -6.588034034e-10 4.705738596e-11)
(0 -2.352869298e-10 4.705738596e-11)
(0 4.705738596e-11 2.823443158e-10)
(0 -7.529181753e-10 -4.235164736e-10)
(0 -6.588034034e-10 -7.529181753e-10)
(0 -2.823443158e-10 2.823443158e-10)
(0 -1.411721579e-10 1.411721579e-10)
(0 1.647008509e-09 -9.411477192e-11)
(0 4.705738596e-11 -9.411477192e-11)
(0 -1.317606807e-09 1.882295438e-10)
(0 6.588034034e-10 -1.882295438e-10)
(0 4.705738596e-10 0)
(0 -1.882295438e-10 -1.882295438e-10)
(0 -4.705738596e-11 -3.294017017e-10)
(0 4.235164736e-10 -1.411721579e-10)
(0 -4.705738596e-11 4.705738596e-10)
(0 -1.411721579e-10 -3.764590877e-10)
(0 2.352869298e-10 0)
(0 -9.411477192e-11 -9.411477192e-11)
(0 -1.411721579e-10 0)
(0 -1.882295438e-10 -1.882295438e-10)
(0 3.294017017e-10 9.411477192e-11)
(0 6.117460175e-10 -4.705738596e-11)
(0 -9.882051051e-10 -7.058607894e-10)
(0 -1.270549421e-09 -2.823443158e-10)
(0 3.246959631e-09 7.058607894e-10)
(0 176.5982654 1262.558611)
(0 471.9881011 1471.604132)
(0 621.2054607 1844.498175)
(0 531.9584586 2308.355283)
(0 67.08319562 2722.16181)
(0 -857.7532594 2827.622803)
(0 -2039.258329 2224.75199)
(0 -1359.684291 623.0343872)
(0 -159.0230603 568.8809052)
(0 -188.942205 262.6947549)
(0 -97.34741419 94.90573465)
(0 -37.39286942 28.05485194)
(0 -11.48598502 7.003165984)
(0 -2.942659246 1.511395883)
(0 -0.6470551181 0.2871987543)
(0 -0.1247018794 0.04875425469)
(0 -0.02140501037 0.007481571725)
(0 -0.003314387595 0.001048002337)
(0 -0.0004677739451 0.0001351076843)
(0 -6.069428701e-05 1.614233039e-05)
(0 -7.29342425e-06 1.797874488e-06)
(0 -8.173867941e-07 1.878530847e-07)
(0 -8.507975381e-08 1.811709359e-08)
(0 -7.435066981e-09 1.223492035e-09)
(0 -7.058607894e-10 -1.411721579e-10)
(0 -1.411721579e-10 1.882295438e-10)
(0 -2.823443158e-10 1.882295438e-10)
(0 -1.129377263e-09 -9.411477192e-11)
(0 -4.705738596e-10 -2.352869298e-10)
(0 4.705738596e-11 -2.352869298e-10)
(0 -2.352869298e-10 1.411721579e-10)
(0 1.364664193e-09 -1.882295438e-10)
(0 3.294017017e-10 -2.823443158e-10)
(0 -1.082319877e-09 9.411477192e-11)
(0 3.764590877e-10 1.411721579e-10)
(0 0 -4.705738596e-10)
(0 -2.823443158e-10 -3.294017017e-10)
(0 2.352869298e-10 -4.705738596e-11)
(0 3.764590877e-10 -4.705738596e-11)
(0 -1.411721579e-10 1.411721579e-10)
(0 -1.882295438e-10 -2.352869298e-10)
(0 0 -5.176312455e-10)
(0 0 -4.235164736e-10)
(0 0 -4.705738596e-10)
(0 -3.764590877e-10 -3.294017017e-10)
(0 1.882295438e-10 -4.235164736e-10)
(0 5.176312455e-10 -4.235164736e-10)
(0 -1.411721579e-10 -9.411477192e-11)
(0 6.588034034e-10 3.764590877e-10)
(0 1.411721579e-09 -1.411721579e-10)
(0 305.753929 1700.431463)
(0 834.5082834 2025.622654)
(0 1151.124965 2625.299623)
(0 1108.51898 3411.216179)
(0 457.4818062 4224.637868)
(0 -1075.217745 4731.696285)
(0 -3374.041613 4165.533828)
(0 -2401.985614 1557.91238)
(0 -419.66128 1455.491071)
(0 -536.1770865 652.388855)
(0 -267.5885685 231.2819519)
(0 -100.7956137 67.49147988)
(0 -30.55567532 16.69015718)
(0 -7.753827722 3.576263605)
(0 -1.692566905 0.6756950819)
(0 -0.3242972394 0.1141643629)
(0 -0.05539707114 0.01744889203)
(0 -0.008542488633 0.002435670298)
(0 -0.001201303207 0.0003130288842)
(0 -0.0001553702183 3.72947195e-05)
(0 -1.861383136e-05 4.143402834e-06)
(0 -2.078760025e-06 4.321750326e-07)
(0 -2.175462953e-07 4.301045077e-08)
(0 -2.108170891e-08 3.623418719e-09)
(0 -1.74112328e-09 -4.705738596e-10)
(0 1.411721579e-10 -1.411721579e-10)
(0 -2.823443158e-10 -2.352869298e-10)
(0 -1.129377263e-09 4.705738596e-11)
(0 -7.058607894e-10 0)
(0 0 -2.823443158e-10)
(0 -4.705738596e-11 0)
(0 1.176434649e-09 0)
(0 3.294017017e-10 4.705738596e-11)
(0 -8.940903332e-10 -4.705738596e-11)
(0 9.411477192e-11 -2.352869298e-10)
(0 0 -2.352869298e-10)
(0 2.352869298e-10 -4.705738596e-11)
(0 2.823443158e-10 4.705738596e-11)
(0 5.646886315e-10 0)
(0 -2.352869298e-10 4.235164736e-10)
(0 -8.470329473e-10 0)
(0 0 -3.294017017e-10)
(0 4.705738596e-11 0)
(0 -9.411477192e-11 -2.352869298e-10)
(0 -9.411477192e-11 -4.705738596e-11)
(0 2.352869298e-10 0)
(0 9.411477192e-10 0)
(0 -1.411721579e-10 4.235164736e-10)
(0 -1.364664193e-09 0)
(0 3.011672701e-09 -4.705738596e-11)
(0 501.7894567 2120.84312)
(0 1396.856261 2600.184913)
(0 2006.798986 3514.572055)
(0 2131.296704 4759.239911)
(0 1387.563302 6187.795402)
(0 -916.8572999 7490.362355)
(0 -5213.042234 7409.144363)
(0 -4069.727048 3621.784874)
(0 -1064.546585 3426.714318)
(0 -1413.151324 1491.176845)
(0 -682.2447894 518.9485275)
(0 -251.9846641 149.553107)
(0 -75.4012013 36.65154708)
(0 -18.95712134 7.799947324)
(0 -4.10915436 1.465751542)
(0 -0.7829480693 0.24655177)
(0 -0.133133703 0.03754137756)
(0 -0.02045025074 0.005223257704)
(0 -0.002866149618 0.0006693429403)
(0 -0.0003695797684 7.95386525e-05)
(0 -4.415592166e-05 8.816295374e-06)
(0 -4.91773212e-06 9.161602472e-07)
(0 -5.136784251e-07 9.025606627e-08)
(0 -5.091609161e-08 8.187985157e-09)
(0 -4.470451666e-09 6.588034034e-10)
(0 1.411721579e-10 -3.294017017e-10)
(0 -9.411477192e-11 -3.764590877e-10)
(0 -9.411477192e-10 0)
(0 -7.999755613e-10 -2.352869298e-10)
(0 4.705738596e-11 -1.411721579e-10)
(0 4.705738596e-11 0)
(0 1.364664193e-09 0)
(0 3.294017017e-10 -4.705738596e-10)
(0 -1.364664193e-09 0)
(0 1.411721579e-10 -4.235164736e-10)
(0 1.882295438e-10 -4.705738596e-11)
(0 0 4.705738596e-11)
(0 2.823443158e-10 -2.823443158e-10)
(0 7.999755613e-10 -4.705738596e-11)
(0 -1.882295438e-10 0)
(0 -8.470329473e-10 0)
(0 -4.705738596e-11 0)
(0 9.411477192e-11 0)
(0 -9.411477192e-11 0)
(0 -9.411477192e-11 4.705738596e-11)
(0 2.352869298e-10 0)
(0 9.411477192e-10 0)
(0 -1.411721579e-10 0)
(0 2.352869298e-10 0)
(0 1.411721579e-09 1.647008509e-09)
(0 785.0957224 2356.981932)
(0 2228.237219 2942.632448)
(0 3310.179963 4162.842443)
(0 3781.742327 6008.404448)
(0 3188.604251 8267.117824)
(0 146.1312161 10776.05436)
(0 -7242.619094 12011.28241)
(0 -6384.415659 7760.867884)
(0 -2550.269309 7389.048644)
(0 -3443.942877 3125.434467)
(0 -1609.212306 1068.630312)
(0 -583.0925942 304.3254789)
(0 -172.308835 73.9504944)
(0 -42.93962326 15.63699312)
(0 -9.245962458 2.923645421)
(0 -1.752507404 0.489751324)
(0 -0.2967255834 0.07431260067)
(0 -0.04541452339 0.01030819493)
(0 -0.006345022211 0.001317439141)
(0 -0.000815896769 0.0001561773465)
(0 -9.723641773e-05 1.727293115e-05)
(0 -1.080479933e-05 1.791098224e-06)
(0 -1.125518557e-06 1.754299349e-07)
(0 -1.10584857e-07 1.670537202e-08)
(0 -1.030556752e-08 1.788180666e-09)
(0 -9.411477192e-10 2.823443158e-10)
(0 4.705738596e-11 -1.882295438e-10)
(0 -9.411477192e-10 -1.035262491e-09)
(0 -9.411477192e-10 -4.705738596e-11)
(0 2.823443158e-10 -1.411721579e-10)
(0 1.411721579e-10 -9.411477192e-11)
(0 7.529181753e-10 4.235164736e-10)
(0 2.823443158e-10 -1.176434649e-09)
(0 -8.940903332e-10 0)
(0 9.411477192e-11 -9.411477192e-11)
(0 4.235164736e-10 -1.882295438e-10)
(0 4.705738596e-11 2.823443158e-10)
(0 2.352869298e-10 -4.705738596e-11)
(0 7.999755613e-10 9.411477192e-11)
(0 -1.882295438e-10 -9.411477192e-10)
(0 -8.470329473e-10 2.352869298e-10)
(0 0 2.823443158e-10)
(0 4.705738596e-11 2.352869298e-10)
(0 -4.705738596e-11 0)
(0 -9.411477192e-11 2.823443158e-10)
(0 1.882295438e-10 3.764590877e-10)
(0 9.411477192e-10 4.705738596e-11)
(0 -1.411721579e-10 -5.646886315e-10)
(0 2.352869298e-10 5.176312455e-10)
(0 1.411721579e-09 4.705738596e-11)
(0 1087.439973 2262.690084)
(0 3202.716773 2744.161905)
(0 5072.570986 3916.224957)
(0 6235.572085 6100.806558)
(0 6155.213216 9448.049904)
(0 2827.307282 13474.74872)
(0 -8228.228713 17339.63529)
(0 -8691.96081 15195.8684)
(0 -5699.980002 14522.24459)
(0 -7733.569656 5982.571722)
(0 -3503.353777 2012.163121)
(0 -1246.664482 566.7431446)
(0 -364.089687 136.6385922)
(0 -89.98397031 28.7221922)
(0 -19.25639616 5.345292289)
(0 -3.63228089 0.8920259591)
(0 -0.612576832 0.1349214525)
(0 -0.09344541227 0.01866410126)
(0 -0.01301816725 0.002379586552)
(0 -0.001669746026 0.0002814763423)
(0 -0.0001985421229 3.106832147e-05)
(0 -2.201518627e-05 3.215901756e-06)
(0 -2.288071277e-06 3.138727643e-07)
(0 -2.245578458e-07 2.912852191e-08)
(0 -2.089347937e-08 2.823443158e-09)
(0 -1.882295438e-09 7.999755613e-10)
(0 -1.458778965e-09 2.352869298e-10)
(0 -7.529181753e-10 -1.035262491e-09)
(0 9.411477192e-11 9.411477192e-11)
(0 4.705738596e-11 -9.411477192e-11)
(0 5.176312455e-10 -1.411721579e-10)
(0 2.823443158e-10 -1.882295438e-10)
(0 -4.705738596e-11 -7.999755613e-10)
(0 -2.823443158e-10 -3.294017017e-10)
(0 0 7.999755613e-10)
(0 6.117460175e-10 -3.294017017e-10)
(0 4.705738596e-11 -4.705738596e-11)
(0 4.705738596e-11 2.352869298e-10)
(0 -9.411477192e-11 0)
(0 4.705738596e-11 -2.352869298e-10)
(0 3.294017017e-10 0)
(0 -4.705738596e-11 0)
(0 -2.352869298e-10 -9.411477192e-11)
(0 0 2.352869298e-10)
(0 2.823443158e-10 0)
(0 -4.705738596e-11 4.235164736e-10)
(0 4.705738596e-11 4.705738596e-11)
(0 3.294017017e-10 -1.411721579e-10)
(0 9.411477192e-10 1.223492035e-09)
(0 7.529181753e-10 6.117460175e-10)
(0 1266.567544 1938.5622)
(0 3881.772092 2121.467676)
(0 6666.824616 2729.887284)
(0 9313.567275 4324.323085)
(0 10562.54641 7925.146683)
(0 8037.716601 13863.78761)
(0 -5521.49941 22141.40255)
(0 -9201.806356 26892.16693)
(0 -11763.56599 25874.99878)
(0 -15954.02435 10409.74601)
(0 -7025.040884 3449.598107)
(0 -2458.617123 961.9787831)
(0 -710.3297874 230.2867701)
(0 -174.2329232 48.15025384)
(0 -37.0761287 8.923540597)
(0 -6.962878241 1.484109514)
(0 -1.170087441 0.2238355896)
(0 -0.1779563894 0.03088773993)
(0 -0.02472764703 0.003929510591)
(0 -0.003164414953 0.0004639089338)
(0 -0.0003754969524 5.111495612e-05)
(0 -4.15592951e-05 5.282709205e-06)
(0 -4.312338849e-06 5.141019416e-07)
(0 -4.216341782e-07 4.719855812e-08)
(0 -3.85399991e-08 4.329279508e-09)
(0 -3.576361333e-09 1.176434649e-09)
(0 -1.74112328e-09 1.364664193e-09)
(0 -1.082319877e-09 0)
(0 4.705738596e-11 -4.705738596e-11)
(0 0 -2.823443158e-10)
(0 4.705738596e-11 -1.882295438e-10)
(0 1.882295438e-10 -7.058607894e-10)
(0 9.411477192e-11 -2.823443158e-10)
(0 7.058607894e-10 -3.764590877e-10)
(0 9.411477192e-11 -9.411477192e-11)