/*--------------------------------*- C++ -*----------------------------------*\
  =========                 |
  \\      /  F ield         | OpenFOAM: The Open Source CFD Toolbox
   \\    /   O peration     | Website:  https://openfoam.org
    \\  /    A nd           | Version:  6
     \\/     M anipulation  |
\*---------------------------------------------------------------------------*/
FoamFile
{
    version     2.0;
    format      ascii;
    class       volVectorField;
    location    "0.02";
    object      Marangoni;
}
// * * * * * * * * * * * * * * * * * * * * * * * * * * * * * * * * * * * * * //

dimensions      [1 -2 -2 0 0 0 0];

internalField   nonuniform List<vector> 
2500
(
(-0 -7.93157869e-42 -2.076126933e-38)
(-0 3.699849995e-37 -1.398028539e-34)
(-0 6.950302107e-32 -4.53840736e-30)
(-0 1.801912508e-28 -4.345375537e-27)
(-0 1.000866897e-26 -1.15005738e-25)
(-0 2.887041629e-27 -1.688919843e-26)
(-0 1.296130813e-19 -3.307971088e-19)
(-0 1.22713621e-09 -0.001636694847)
(-0 3.199231346e-11 -0.0001413264434)
(-0 2.699828294e-19 -2.020963025e-19)
(-0 6.015603086e-21 -4.895431932e-21)
(-0 2.833096795e-22 -2.727861011e-22)
(-0 3.6183099e-22 -4.187375678e-22)
(-0 1.547656304e-23 -1.999185809e-23)
(-0 5.734903792e-24 -7.432549442e-24)
(-0 4.796807769e-25 -5.87995791e-25)
(-0 2.421997346e-25 -8.3039909e-26)
(-0 3.459996208e-26 8.822990331e-26)
(-0 -9.554226809e-26 6.49687423e-25)
(-0 2.446586782e-26 4.403856207e-25)
(-0 7.736786723e-27 3.017346822e-25)
(-0 2.646388227e-26 3.528517637e-25)
(-0 -3.566482458e-26 3.067174914e-25)
(-0 -8.649990521e-27 2.681497061e-25)
(-0 -0 0)
(-0 -0 0)
(-0 0 0)
(-0 0 0)
(-0 -0 0)
(-0 -0 0)
(-0 0 0)
(-0 -0 0)
(-0 -0 0)
(-0 0 0)
(-0 0 0)
(-0 -0 0)
(-0 -0 0)
(-0 -0 0)
(-0 -0 0)
(-0 0 0)
(-0 -0 0)
(-0 0 0)
(-0 0 0)
(-0 -0 0)
(-0 -0 0)
(-0 -0 0)
(-0 -0 0)
(-0 0 0)
(-0 -0 0)
(-0 -0 0)
(-0 -3.968520246e-41 -1.830937045e-38)
(-0 2.761461166e-37 -9.878472739e-35)
(-0 9.513065488e-32 -3.082684532e-30)
(-0 3.720723006e-28 -4.125332926e-27)
(-0 2.862366988e-26 -1.48014013e-25)
(-0 1.472129995e-25 -3.849106245e-25)
(-0 1.02013739e-16 -1.161336952e-16)
(-0 4.43628582e-09 -0.002654252009)
(-0 1.15893822e-10 -0.00024842405)
(-0 9.588720362e-19 -3.873602079e-19)
(-0 2.234563469e-20 -1.154154049e-20)
(-0 1.118168314e-20 -7.83106197e-21)
(-0 1.796936521e-21 -1.575186908e-21)
(-0 4.834008994e-22 -4.629657857e-22)
(-0 1.16764492e-22 -1.107579386e-22)
(-0 4.961956062e-24 -4.480531438e-24)
(-0 2.615757133e-24 -1.837257987e-24)
(-0 3.91644978e-25 -5.16971371e-25)
(-0 -1.330299925e-25 -1.478111028e-26)
(-0 8.838241838e-26 -3.829904797e-25)
(-0 2.794897472e-26 -1.02479574e-25)
(-0 2.940996777e-26 -4.411495165e-25)
(-0 -1.934196681e-26 -4.255232698e-26)
(-0 -4.893173563e-26 -7.829077701e-26)
(-0 -4.021912416e-41 -5.415750706e-26)
(-0 0 -0)
(-0 -0 0)
(-0 0 -0)
(-0 0 0)
(-0 0 0)
(-0 -0 0)
(-0 -0 0)
(-0 -0 0)
(-0 -0 0)
(-0 0 0)
(-0 0 0)
(-0 -0 0)
(-0 -0 0)
(-0 -0 0)
(-0 -0 0)
(-0 -0 0)
(-0 0 0)
(-0 0 0)
(-0 -0 -0)
(-0 -0 0)
(-0 -0 0)
(-0 -0 0)
(-0 -0 0)
(-0 0 0)
(-0 -0 0)
(-0 -3.656052119e-39 -6.611078283e-37)
(-0 -1.370021746e-35 -3.465092951e-33)
(-0 1.508060166e-30 -5.397105256e-29)
(-0 4.618354154e-27 -4.666809423e-26)
(-0 3.004742475e-25 -1.348119764e-24)
(-0 3.166596039e-24 -7.057300966e-24)
(-0 8.170849161e-16 -7.875740813e-16)
(-0 1.033467811e-08 -0.005287687728)
(-0 2.710406691e-10 -0.0005614760316)
(-0 1.546415342e-18 -6.984772738e-19)
(-0 6.126274476e-20 -4.038369866e-20)
(-0 3.632010629e-20 -3.253617706e-20)
(-0 1.24297133e-20 -1.266785155e-20)
(-0 2.064282784e-21 -2.086420015e-21)
(-0 5.519788958e-22 -5.181890716e-22)
(-0 9.238165215e-23 -7.868277864e-23)
(-0 4.007509148e-24 -3.102272039e-24)
(-0 9.843491583e-25 -6.918975968e-25)
(-0 3.892495734e-25 -3.892495734e-25)
(-0 -1.52867629e-25 -5.732536086e-26)
(-0 -2.767996967e-26 -4.428795147e-25)
(-0 5.415750706e-26 -2.978662889e-25)
(-0 1.138254616e-25 -3.794182052e-25)
(-0 1.641220307e-26 -5.470734357e-27)
(-0 -5.538696396e-26 -2.880122126e-25)
(-0 5.535993933e-26 -1.037998862e-26)
(-0 0 0)
(-0 0 0)
(-0 0 0)
(-0 -0 0)
(-0 -0 -0)
(-0 -0 0)
(-0 -0 -0)
(-0 -0 0)
(-0 -0 -0)
(-0 0 -0)
(-0 -0 -0)
(-0 -0 -0)
(-0 -0 0)
(-0 -0 -0)
(-0 0 -0)
(-0 -0 -0)
(-0 0 -0)
(-0 0 -0)
(-0 0 -0)
(-0 -0 0)
(-0 -0 0)
(-0 -0 0)
(-0 -0 -0)
(-0 -0 -0)
(-0 -8.126448123e-38 -8.139482706e-36)
(-0 -7.249123784e-34 -5.015125018e-32)
(-0 1.608009579e-29 -9.50144449e-28)
(-0 6.392828715e-26 -6.928321814e-25)
(-0 4.265991662e-24 -1.898602439e-23)
(-0 2.485198793e-22 -5.347494967e-22)
(-0 4.058181101e-15 -3.737468503e-15)
(-0 2.231291196e-08 -0.01112693934)
(-0 5.889871831e-10 -0.001426732614)
(-0 7.077159044e-18 -4.354710279e-18)
(-0 3.68117304e-19 -3.394937642e-19)
(-0 1.493133421e-19 -1.664645129e-19)
(-0 1.777032428e-20 -1.981128954e-20)
(-0 1.23649762e-21 -1.262989261e-21)
(-0 1.375177498e-21 -1.254022521e-21)
(-0 9.029077549e-22 -7.339896905e-22)
(-0 7.684563413e-23 -5.603367784e-23)
(-0 2.360775367e-23 -1.565296711e-23)
(-0 2.445246909e-24 -2.268482072e-24)
(-0 2.976401281e-26 -7.738643329e-25)
(-0 -1.178432245e-25 -2.651472551e-25)
(-0 2.112581998e-25 -2.376654748e-25)
(-0 1.652578369e-25 -1.983094042e-25)
(-0 -7.4542846e-25 -9.229114267e-25)
(-0 -1.764258818e-26 -1.764258818e-25)
(-0 5.489085246e-25 -2.245534873e-25)
(-0 0 -0)
(-0 0 0)
(-0 0 0)
(-0 -0 -0)
(-0 -0 0)
(-0 -0 0)
(-0 -0 0)
(-0 -0 -0)
(-0 -0 -0)
(-0 0 -0)
(-0 -0 -0)
(-0 -0 -0)
(-0 -0 -0)
(-0 -0 0)
(-0 -0 -0)
(-0 0 0)
(-0 0 -0)
(-0 0 0)
(-0 0 -0)
(-0 0 0)
(-0 -0 -0)
(-0 -0 -0)
(-0 -0 0)
(-0 0 -0)
(-0 -3.186872722e-37 -2.063517146e-35)
(-0 -1.523005086e-33 -5.509995625e-32)
(-0 1.054550465e-30 -5.750591212e-28)
(-0 2.83110657e-25 -3.547154598e-24)
(-0 3.012480781e-22 -1.381477431e-21)
(-0 4.353199591e-21 -9.316361074e-21)
(-0 1.138474823e-11 -1.029365202e-11)
(-0 4.697092078e-08 -0.0239758676)
(-0 1.253073797e-09 -0.004045601273)
(-0 1.946851391e-14 -1.750489277e-14)
(-0 1.04178663e-18 -1.26683241e-18)
(-0 3.821684659e-19 -4.789024655e-19)
(-0 2.1325257e-19 -2.417815324e-19)
(-0 6.068727161e-20 -6.014246312e-20)
(-0 1.172984906e-20 -1.016459175e-20)
(-0 1.710053087e-21 -1.308774722e-21)
(-0 5.214536795e-22 -3.565632445e-22)
(-0 1.23283396e-22 -7.68281792e-23)
(-0 1.162677348e-23 -6.568009059e-24)
(-0 1.254218798e-24 -9.406640982e-25)
(-0 3.969582341e-25 -2.381749405e-25)
(-0 1.473040306e-25 -4.124512858e-25)
(-0 -4.465942441e-25 -3.508954775e-25)
(-0 -4.120737825e-25 -7.554686012e-25)
(-0 9.687989383e-26 -4.843994691e-26)
(-0 2.248997535e-25 -1.643498199e-25)
(-0 2.906396815e-25 -8.3039909e-26)
(-0 0 -0)
(-0 0 -0)
(-0 0 -0)
(-0 -0 0)
(-0 -0 0)
(-0 -0 0)
(-0 -0 -0)
(-0 -0 0)
(-0 0 0)
(-0 -0 0)
(-0 -0 0)
(-0 0 0)
(-0 -0 0)
(-0 -0 0)
(-0 -0 0)
(-0 -0 0)
(-0 0 0)
(-0 0 0)
(-0 -0 -0)
(-0 -0 -0)
(-0 -0 0)
(-0 -0 0)
(-0 -0 0)
(-0 -2.3905462e-35 -1.082614106e-33)
(-0 -1.012572715e-31 -2.318745877e-30)
(-0 -1.214726896e-28 -7.241296484e-27)
(-0 2.43385058e-24 -3.827647447e-23)
(-0 4.602292666e-21 -2.219369853e-20)
(-0 5.881548477e-20 -1.26531754e-19)
(-0 4.164239163e-10 -3.727455852e-10)
(-0 9.737764563e-08 -0.05343597972)
(-0 2.647139734e-09 -0.01279353008)
(-0 9.295645387e-13 -1.191537143e-12)
(-0 2.754770292e-18 -3.954426376e-18)
(-0 4.777586728e-19 -6.174945534e-19)
(-0 1.13978241e-18 -1.25463724e-18)
(-0 3.055590395e-19 -2.868908675e-19)
(-0 2.797610382e-20 -2.273691182e-20)
(-0 4.65636614e-21 -3.327807422e-21)
(-0 1.926490586e-21 -1.227798909e-21)
(-0 1.356664513e-22 -7.796409456e-23)
(-0 1.899482977e-23 -1.003709804e-23)
(-0 6.021313015e-24 -2.984476886e-24)
(-0 7.5532795e-25 -9.66819776e-25)
(-0 1.556998294e-25 -5.968493459e-25)
(-0 -1.030184456e-25 -5.150922281e-25)
(-0 -5.331791288e-25 9.694165979e-26)
(-0 -9.198128341e-39 -4.403856207e-25)
(-0 2.999239991e-25 -8.821294091e-27)
(-0 1.854570878e-25 2.853185966e-26)
(-0 0 0)
(-0 0 -0)
(-0 0 0)
(-0 0 -0)
(-0 -0 0)
(-0 -0 -0)
(-0 -0 0)
(-0 -0 0)
(-0 0 -0)
(-0 -0 0)
(-0 -0 -0)
(-0 0 0)
(-0 -0 -0)
(-0 -0 0)
(-0 0 -0)
(-0 0 0)
(-0 0 0)
(-0 -0 0)
(-0 -0 -0)
(-0 -0 -0)
(-0 -0 -0)
(-0 0 0)
(-0 -0 0)
(-0 -1.541618894e-33 -5.10872501e-32)
(-0 -9.661932076e-30 -1.530819452e-28)
(-0 -5.20134367e-26 -1.320561424e-24)
(-0 1.321738311e-23 -3.041487624e-22)
(-0 2.573119098e-22 -1.332770121e-21)
(-0 4.188478434e-19 -9.1288605e-19)
(-0 2.367521409e-09 -2.109416809e-09)
(-0 1.99238187e-07 -0.1259248659)
(-0 5.612393722e-09 -0.04373653428)
(-0 7.677730981e-12 -1.27295031e-11)
(-0 1.525069003e-17 -2.331413449e-17)
(-0 6.234392343e-18 -7.865133913e-18)
(-0 1.761338708e-18 -1.833259766e-18)
(-0 9.875876107e-19 -8.665527503e-19)
(-0 2.2794573e-19 -1.723497276e-19)
(-0 4.129019456e-20 -2.740406658e-20)
(-0 0 -0)
(-0 7.493382988e-22 -3.997956419e-22)
(-0 5.406590075e-23 -2.644129102e-23)
(-0 3.245723152e-23 -1.45771715e-23)
(-0 2.775039911e-24 -1.439879199e-24)
(-0 6.910297636e-25 -2.591361613e-25)
(-0 4.186595412e-25 -0)
(-0 -2.670984855e-25 -9.712672198e-26)
(-0 6.361125632e-26 -6.361125632e-26)
(-0 1.284595528e-24 2.506527859e-25)
(-0 4.378672706e-25 5.589794944e-26)
(-0 2.594997156e-26 3.113996587e-26)
(-0 -0 -0)
(-0 -0 0)
(-0 -0 -0)
(-0 -0 -0)
(-0 -0 -0)
(-0 0 0)
(-0 -0 0)
(-0 0 -0)
(-0 -0 -0)
(-0 -0 -0)
(-0 -0 -0)
(-0 -0 -0)
(-0 0 0)
(-0 0 0)
(-0 0 -0)
(-0 0 -0)
(-0 -0 -0)
(-0 -0 -0)
(-0 -0 -0)
(-0 0 -0)
(-0 -0 -0)
(-0 -0 -0)
(-0 -6.998993722e-32 -1.74573611e-30)
(-0 -5.10983126e-28 -5.887589009e-27)
(-0 -1.27312497e-24 -1.903366464e-23)
(-0 4.611967896e-23 -2.4725266e-21)
(-0 1.547664499e-21 -8.86380304e-21)
(-0 2.530640522e-18 -5.63664811e-18)
(-0 9.156217621e-09 -8.17026646e-09)
(-0 4.023012763e-07 -0.3190202729)
(-0 1.216842823e-08 -0.1541598676)
(-0 4.816211789e-11 -9.148085221e-11)
(-0 1.304978698e-16 -1.977320475e-16)
(-0 4.423664791e-17 -5.275729338e-17)
(-0 1.351116927e-17 -1.309563081e-17)
(-0 3.705504514e-18 -3.012617478e-18)
(-0 9.477174934e-19 -6.628554173e-19)
(-0 1.644076883e-19 -1.008927804e-19)
(-0 1.153577441e-20 -6.308204537e-21)
(-0 2.218967745e-21 -1.094777746e-21)
(-0 9.172596233e-22 -4.121767097e-22)
(-0 1.438517186e-22 -5.925423646e-23)
(-0 7.035808494e-24 -2.350196535e-24)
(-0 1.727574409e-24 -1.727574409e-25)
(-0 1.346400964e-25 9.873607072e-25)
(-0 -4.452787943e-25 4.110265793e-25)
(-0 2.525560235e-25 5.682510528e-25)
(-0 1.214124699e-24 6.810943434e-25)
(-0 3.447040215e-25 1.211122238e-25)
(-0 3.459996208e-26 -0)
(-0 0 0)
(-0 0 -0)
(-0 -0 -0)
(-0 -0 0)
(-0 -0 -0)
(-0 0 -0)
(-0 -0 0)
(-0 -0 -0)
(-0 -0 -0)
(-0 -0 0)
(-0 -0 0)
(-0 -0 0)
(-0 0 0)
(-0 -0 -0)
(-0 -0 0)
(-0 0 -0)
(-0 0 -0)
(-0 -0 -0)
(-0 -0 -0)
(-0 -0 0)
(-0 0 -0)
(-0 -0 0)
(-0 -1.399401339e-30 -2.676164391e-29)
(-0 -1.033444191e-26 -8.92885474e-26)
(-0 -1.749600215e-23 -1.741175597e-22)
(-0 -1.861452476e-22 -1.55598419e-20)
(-0 5.366960133e-21 -3.552524502e-20)
(-0 1.158533701e-17 -2.665798945e-17)
(-0 2.275431189e-08 -2.04831398e-08)
(-0 8.002963021e-07 -0.8654744024)
(-0 2.799588246e-08 -0.537691508)
(-0 2.106034201e-10 -4.134363905e-10)
(-0 6.099865542e-16 -8.769834997e-16)
(-0 1.429694972e-16 -1.582161918e-16)
(-0 4.580176773e-17 -4.094426947e-17)
(-0 8.754241154e-18 -6.554389213e-18)
(-0 2.194927616e-18 -1.413555947e-18)
(-0 7.14208535e-19 -4.036759962e-19)
(-0 1.377495538e-19 -6.940501724e-20)
(-0 3.436846094e-20 -1.562963376e-20)
(-0 4.053295456e-21 -1.68030637e-21)
(-0 3.54265766e-22 -1.348313975e-22)
(-0 3.115217467e-23 -1.07937209e-23)
(-0 3.751586949e-24 -5.149236989e-25)
(-0 0 -0)
(-0 -2.403390176e-25 1.249762892e-24)
(-0 7.023792303e-25 1.20407868e-24)
(-0 8.234790976e-25 4.117395488e-25)
(-0 1.71191158e-25 -7.132964915e-26)
(-0 1.556998294e-26 -7.784991468e-26)
(-0 -0 -0)
(-0 -0 0)
(-0 0 -0)
(-0 -0 0)
(-0 -0 -0)
(-0 0 0)
(-0 -0 -0)
(-0 -0 -0)
(-0 -0 0)
(-0 -0 0)
(-0 0 0)
(-0 -0 -0)
(-0 -0 -0)
(-0 -0 -0)
(-0 0 0)
(-0 -0 0)
(-0 -0 -0)
(-0 -0 -0)
(-0 0 0)
(-0 0 -0)
(-0 0 0)
(-0 -0 0)
(-0 -1.679318216e-29 -2.492513898e-28)
(-0 -9.433132134e-26 -6.232420321e-25)
(-0 -1.027453823e-22 -7.246568615e-22)
(-0 -2.557950823e-21 -5.124465791e-20)
(-0 2.357026116e-20 -1.943240612e-19)
(-0 3.300566705e-17 -7.955099346e-17)
(-0 2.934202271e-08 -2.688499037e-08)
(-0 1.565395802e-06 -2.449678614)
(-0 6.914433152e-08 -1.805354637)
(-0 4.930269987e-10 -9.318779864e-10)
(-0 2.23777597e-15 -2.975372852e-15)
(-0 4.993404867e-16 -5.068192243e-16)
(-0 1.040607367e-16 -8.520829149e-17)
(-0 3.129650224e-17 -2.147020475e-17)
(-0 7.327658492e-18 -4.326859888e-18)
(-0 6.675920132e-19 -3.461966676e-19)
(-0 8.321406504e-19 -3.849087881e-19)
(-0 3.639421924e-20 -1.520197774e-20)
(-0 2.208835724e-20 -8.415773878e-21)
(-0 2.124275308e-21 -7.44234359e-22)
(-0 9.725546529e-23 -3.13848397e-23)
(-0 1.179116045e-23 -3.081375768e-24)
(-0 1.505098351e-24 -9.082490047e-25)
(-0 3.38098465e-25 1.040302969e-25)
(-0 -4.511283121e-26 4.511283121e-26)
(-0 2.214397573e-25 5.535993933e-26)
(-0 7.057035273e-26 -1.676045877e-25)
(-0 -1.556998294e-26 -1.297498578e-25)
(-0 0 -0)
(-0 0 -0)
(-0 -0 0)
(-0 -0 -0)
(-0 -0 -0)
(-0 0 -0)
(-0 -0 -0)
(-0 -0 -0)
(-0 -0 0)
(-0 -0 -0)
(-0 -0 -0)
(-0 -0 -0)
(-0 0 -0)
(-0 0 0)
(-0 0 0)
(-0 -0 0)
(-0 -0 0)
(-0 0 0)
(-0 -0 0)
(-0 0 -0)
(-0 0 0)
(-0 -0 -0)
(-0 -6.877284701e-28 -7.98332205e-27)
(-0 -3.031518541e-24 -1.550674277e-23)
(-0 -1.463227572e-21 -7.583447274e-21)
(-0 -1.095047661e-19 -1.126339901e-18)
(-0 1.249749056e-17 -1.492053444e-16)
(-0 5.959474237e-16 -1.533030896e-15)
(-0 1.607200208e-08 -1.520858572e-08)
(-0 3.006263743e-06 -6.985132629)
(-0 1.761611413e-07 -5.737538955)
(-0 5.131794842e-10 -8.949162898e-10)
(-0 6.385787872e-15 -7.729181421e-15)
(-0 1.426892848e-15 -1.31740892e-15)
(-0 5.747598642e-16 -4.286433271e-16)
(-0 1.052099094e-16 -6.582525303e-17)
(-0 2.762495965e-18 -1.489325259e-18)
(-0 1.056857177e-17 -5.008347629e-18)
(-0 0 -0)
(-0 2.143566026e-19 -8.192640245e-20)
(-0 4.406244715e-20 -1.536793509e-20)
(-0 8.104851197e-21 -2.600950587e-21)
(-0 4.881101532e-22 -1.450962566e-22)
(-0 8.749386326e-23 -2.477109854e-23)
(-0 4.771322539e-24 -1.02408874e-24)
(-0 6.68916692e-25 -1.881328196e-25)
(-0 6.227993175e-25 5.189994312e-26)
(-0 1.937597877e-25 1.66079818e-25)
(-0 -2.139889475e-26 -1.426592983e-26)
(-0 3.459996208e-27 -1.037998862e-26)
(-0 0 0)
(-0 0 -0)
(-0 -0 0)
(-0 -0 -0)
(-0 -0 -0)
(-0 0 -0)
(-0 -0 -0)
(-0 -0 -0)
(-0 -0 -0)
(-0 -0 -0)
(-0 0 -0)
(-0 -0 0)
(-0 -0 0)
(-0 0 -0)
(-0 -0 -0)
(-0 -0 -0)
(-0 0 0)
(-0 -0 -0)
(-0 -0 -0)
(-0 -0 0)
(-0 0 0)
(-0 -0 0)
(-0 -1.39919015e-25 -1.274963427e-24)
(-0 -3.752692916e-22 -1.496532879e-21)
(-0 -3.848161577e-19 -1.498298958e-18)
(-0 -5.009815669e-17 -3.20194459e-16)
(-0 6.69773008e-16 -1.846717597e-14)
(-0 5.54103442e-14 -1.568076039e-13)
(-0 1.609768332e-11 -1.610129447e-11)
(-0 5.645829475e-06 -19.45562145)
(-0 4.56303883e-07 -17.07820562)
(-0 2.576550867e-13 -4.04181028e-13)
(-0 3.375790309e-14 -3.679770552e-14)
(-0 8.94907833e-15 -7.46582109e-15)
(-0 1.635886241e-15 -1.10529772e-15)
(-0 4.533684872e-16 -2.57471611e-16)
(-0 7.702454846e-17 -3.774465491e-17)
(-0 3.233675905e-18 -1.394294027e-18)
(-0 5.042243703e-18 -1.942110141e-18)
(-0 2.444649574e-19 -8.513006357e-20)
(-0 1.126817568e-19 -3.582582216e-20)
(-0 2.248943846e-20 -6.581848076e-21)
(-0 1.911059706e-21 -5.183766319e-22)
(-0 1.535727804e-22 -3.869043275e-23)
(-0 2.241906672e-23 -4.238604803e-24)
(-0 1.149979072e-24 -1.008753572e-25)
(-0 5.091957821e-25 -7.274225459e-26)
(-0 1.480639877e-25 -2.961279754e-26)
(-0 -9.316324907e-27 -6.521427435e-26)
(-0 5.535993933e-26 3.113996587e-26)
(-0 0 0)
(-0 0 -0)
(-0 0 -0)
(-0 -0 0)
(-0 -0 0)
(-0 0 -0)
(-0 -0 0)
(-0 -0 -0)
(-0 0 0)
(-0 -0 0)
(-0 -0 0)
(-0 -0 -0)
(-0 0 0)
(-0 -0 -0)
(-0 0 0)
(-0 0 -0)
(-0 0 0)
(-0 -0 -0)
(-0 -0 -0)
(-0 0 0)
(-0 0 0)
(-0 -0 -0)
(-0 -4.396450156e-23 -3.141930748e-22)
(-0 -1.269484057e-19 -3.955977926e-19)
(-0 -9.995890422e-17 -2.965492394e-16)
(-0 -6.518302151e-15 -2.823008554e-14)
(-0 -1.064911363e-14 -4.19425128e-13)
(-0 5.585859842e-13 -1.848657869e-12)
(-0 9.37092807e-10 -1.024698013e-09)
(-0 1.041049853e-05 -51.75916088)
(-0 1.208321014e-06 -47.26940437)
(-0 8.801306596e-13 -1.221999098e-12)
(-0 0 -0)
(-0 2.578483034e-14 -1.931795297e-14)
(-0 3.555752487e-15 -2.164880634e-15)
(-0 2.39630366e-16 -1.22901674e-16)
(-0 1.696146257e-16 -7.51770803e-17)
(-0 5.669399875e-17 -2.213409912e-17)
(-0 5.200258798e-18 -1.815067329e-18)
(-0 1.198102264e-18 -3.783109338e-19)
(-0 1.318194611e-19 -3.802118833e-20)
(-0 4.677884426e-20 -1.242448278e-20)
(-0 3.418379672e-21 -8.415121969e-22)
(-0 3.674653529e-22 -8.436616053e-23)
(-0 6.657493035e-23 -1.416889834e-23)
(-0 5.8089699e-24 -9.936395882e-25)
(-0 5.523003707e-25 1.183500794e-25)
(-0 8.959319286e-26 -1.194575905e-25)
(-0 5.589794944e-26 -3.726529963e-26)
(-0 0 0)
(-0 0 0)
(-0 -0 0)
(-0 0 -0)
(-0 -0 0)
(-0 -0 0)
(-0 0 -0)
(-0 -0 -0)
(-0 -0 0)
(-0 0 0)
(-0 -0 0)
(-0 -0 -0)
(-0 0 -0)
(-0 0 0)
(-0 -0 0)
(-0 -0 0)
(-0 -0 0)
(-0 0 0)
(-0 -0 0)
(-0 -0 0)
(-0 0 0)
(-0 -0 -0)
(-0 -0 0)
(-0 -2.297047922e-20 -1.277384139e-19)
(-0 -4.067709403e-17 -9.871629192e-17)
(-0 -7.204511119e-15 -1.642346032e-14)
(-0 -1.692447263e-13 -5.202097797e-13)
(-0 -3.802022348e-13 -3.488508853e-12)
(-0 4.835172386e-13 -2.138910252e-12)
(-0 5.676449328e-07 -7.039009653e-07)
(-0 2.302011615e-05 -129.4744574)
(-0 3.180796344e-06 -120.9780133)
(-0 1.263836758e-09 -1.535600439e-09)
(-0 1.902633505e-13 -1.642124117e-13)
(-0 2.47206266e-14 -1.652864313e-14)
(-0 1.137289671e-14 -6.203088636e-15)
(-0 3.389869817e-15 -1.561225165e-15)
(-0 3.892845474e-16 -1.551829296e-16)
(-0 2.354289798e-17 -8.276050282e-18)
(-0 2.482613011e-17 -7.808558894e-18)
(-0 3.058170341e-18 -8.707272002e-19)
(-0 5.221423255e-19 -1.358666977e-19)
(-0 1.029125487e-19 -2.466866784e-20)
(-0 1.206741085e-20 -2.682509722e-21)
(-0 1.865456956e-21 -3.873033256e-22)
(-0 1.247259433e-22 -2.4635173e-23)
(-0 1.730863103e-23 -2.904666817e-24)
(-0 1.066060711e-24 3.257407729e-25)
(-0 -3.094714689e-26 1.547357345e-26)
(-0 3.113996587e-26 2.075997725e-26)
(-0 0 -0)
(-0 0 -0)
(-0 -0 0)
(-0 0 -0)
(-0 -0 -0)
(-0 -0 -0)
(-0 0 0)
(-0 -0 0)
(-0 -0 0)
(-0 -0 0)
(-0 -0 -0)
(-0 -0 0)
(-0 0 -0)
(-0 0 -0)
(-0 -0 0)
(-0 -0 -0)
(-0 0 0)
(-0 0 0)
(-0 -0 -0)
(-0 -0 -0)
(-0 0 -0)
(-0 0 -0)
(-0 -0 -0)
(-0 -5.790404339e-18 -2.448120185e-17)
(-0 -4.213792381e-15 -7.844964219e-15)
(-0 -1.960750034e-13 -3.433601259e-13)
(-0 -1.79203046e-12 -3.999867289e-12)
(-0 -4.220011868e-12 -1.877190141e-11)
(-0 5.805582481e-12 -4.789623551e-11)
(-0 1.280937188e-05 -2.284350686e-05)
(-0 5.205657055e-05 -301.0908311)
(-0 8.073331385e-06 -284.8989548)
(-0 1.322751206e-08 -1.393828263e-08)
(-0 1.457240482e-13 -1.106851639e-13)
(-0 5.373630262e-14 -3.184599729e-14)
(-0 2.752891993e-14 -1.336181136e-14)
(-0 4.63464622e-15 -1.904134964e-15)
(-0 1.824701708e-15 -6.49925633e-16)
(-0 7.281623836e-16 -2.289659251e-16)
(-0 3.236894365e-17 -9.114288726e-18)
(-0 1.560634449e-17 -3.980351349e-18)
(-0 1.899873122e-18 -4.430549935e-19)
(-0 1.371393181e-19 -2.947282488e-20)
(-0 3.667304684e-20 -7.312035218e-21)
(-0 1.901890464e-21 -3.538153873e-22)
(-0 5.207804624e-23 -9.140448216e-24)
(-0 1.152136656e-23 -1.849108213e-24)
(-0 1.212125119e-24 -1.712785494e-25)
(-0 -1.383998483e-26 2.421997346e-26)
(-0 1.467952069e-26 5.871808276e-26)
(-0 0 -0)
(-0 0 0)
(-0 -0 0)
(-0 -0 -0)
(-0 -0 -0)
(-0 -0 0)
(-0 0 -0)
(-0 -0 0)
(-0 -0 0)
(-0 -0 -0)
(-0 -0 0)
(-0 -0 -0)
(-0 0 -0)
(-0 0 -0)
(-0 -0 -0)
(-0 -0 -0)
(-0 0 -0)
(-0 0 -0)
(-0 -0 -0)
(-0 -0 -0)
(-0 0 -0)
(-0 -0 -0)
(-0 -0 -0)
(-0 -1.178235569e-16 -3.541464028e-16)
(-0 -6.33595709e-14 -8.376469902e-14)
(-0 -2.301411611e-12 -2.896469936e-12)
(-0 -1.434578908e-11 -2.280155541e-11)
(-0 -2.142787584e-11 -5.550972327e-11)
(-0 -5.988229383e-12 -4.056491095e-10)
(-0 2.712427952e-05 -7.227337613e-05)
(-0 4.515516434e-05 -645.342266)
(-0 1.945644566e-05 -614.4674455)
(-0 4.203958769e-08 -3.809881015e-08)
(-0 5.306685707e-13 -3.518943935e-13)
(-0 3.054177552e-13 -1.591688627e-13)
(-0 3.827819243e-14 -1.640371664e-14)
(-0 2.567490039e-14 -9.33597105e-15)
(-0 5.719877036e-15 -1.805993377e-15)
(-0 9.11426006e-16 -2.543296947e-16)
(-0 2.001104488e-16 -5.004277451e-17)
(-0 4.604635979e-17 -1.043644071e-17)
(-0 4.099797651e-18 -8.50031009e-19)
(-0 8.320024974e-20 -1.590334254e-20)
(-0 2.799343148e-20 -4.965703518e-21)
(-0 3.514465375e-21 -5.817964478e-22)
(-0 4.723307085e-22 -7.354476263e-23)
(-0 5.942543488e-23 -8.952740189e-24)
(-0 6.405181016e-24 -1.117885366e-24)
(-0 5.850668411e-25 -1.62518567e-25)
(-0 -1.107739279e-26 5.538696396e-26)
(-0 1.247519374e-25 1.372271312e-25)
(-0 0 0)
(-0 -0 0)
(-0 -0 0)
(-0 -0 -0)
(-0 -0 0)
(-0 0 -0)
(-0 -0 0)
(-0 -0 0)
(-0 -0 -0)
(-0 -0 0)
(-0 -0 -0)
(-0 0 0)
(-0 0 -0)
(-0 -0 -0)
(-0 -0 -0)
(-0 -0 -0)
(-0 0 -0)
(-0 -0 -0)
(-0 -0 -0)
(-0 0 0)
(-0 -0 -0)
(-0 -0 -0)
(-0 -2.292963153e-15 -4.78075094e-15)
(-0 -6.287033377e-13 -5.40030913e-13)
(-0 -1.167769047e-11 -9.039046009e-12)
(-0 -4.190736408e-11 -4.108539261e-11)
(-0 -3.35458398e-11 -5.153631224e-11)
(-0 -1.134899137e-10 -5.385401003e-10)
(-0 1.812204856e-05 -4.617272931e-05)
(-0 -1.475580605e-05 -1263.835648)
(-0 4.356532134e-05 -1207.886383)
(-0 4.284557627e-08 -3.30993209e-08)
(-0 4.48467486e-12 -2.572100361e-12)
(-0 3.562904887e-13 -1.617345413e-13)
(-0 3.866307858e-13 -1.448822303e-13)
(-0 3.741385054e-14 -1.192437011e-14)
(-0 1.003602561e-14 -2.781691996e-15)
(-0 1.544722538e-15 -3.787928573e-16)
(-0 6.287543066e-16 -1.382797194e-16)
(-0 6.46246681e-17 -1.288870635e-17)
(-0 7.540485248e-18 -1.3763167e-18)
(-0 3.85580847e-19 -6.490534664e-20)
(-0 1.189484504e-19 -1.858680031e-20)
(-0 1.18652612e-20 -1.730733353e-21)
(-0 1.812780778e-21 -2.483334632e-22)
(-0 1.093698486e-22 -1.416537195e-23)
(-0 1.819938535e-23 -2.485564203e-24)
(-0 1.270560829e-24 -5.4943171e-25)
(-0 9.915470211e-25 -1.322062695e-25)
(-0 1.614005716e-25 2.219257859e-25)
(-0 -3.459996208e-27 -1.037998862e-26)
(-0 -0 0)
(-0 -0 0)
(-0 -0 0)
(-0 0 0)
(-0 0 0)
(-0 0 -0)
(-0 -0 0)
(-0 -0 0)
(-0 -0 -0)
(-0 0 -0)
(-0 -0 0)
(-0 -0 -0)
(-0 0 -0)
(-0 0 0)
(-0 -0 -0)
(-0 -0 -0)
(-0 0 -0)
(-0 -0 -0)
(-0 -0 0)
(-0 -0 -0)
(-0 -0 -0)
(-0 -5.609590426e-15 -8.605784237e-15)
(-0 -1.165672001e-12 -6.396219556e-13)
(-0 -1.583686319e-11 -6.521559542e-12)
(-0 -4.81647924e-11 -2.248208109e-11)
(-0 -5.571199286e-11 -4.194447829e-11)
(-0 -1.428637951e-10 -2.465985926e-10)
(-0 3.778045813e-06 -1.561544056e-05)
(-0 8.401552956e-06 -2237.021661)
(-0 7.085363708e-05 -2152.496702)
(-0 4.965097776e-08 -3.235300012e-08)
(-0 4.152289626e-12 -2.03605438e-12)
(-0 1.263016788e-12 -4.934526946e-13)
(-0 1.16074493e-13 -3.757481351e-14)
(-0 1.671803876e-13 -4.61317702e-14)
(-0 3.284539309e-14 -7.893379102e-15)
(-0 7.161882518e-15 -1.524234449e-15)
(-0 8.489167298e-17 -1.621536643e-17)
(-0 1.740934164e-16 -3.017243031e-17)
(-0 2.859759581e-17 -4.537805898e-18)
(-0 2.104844735e-18 -3.081242855e-19)
(-0 3.325555841e-19 -4.5204188e-20)
(-0 3.474111308e-20 -4.409762365e-21)
(-0 2.801734178e-21 -3.335561949e-22)
(-0 2.688375915e-22 -3.009330051e-23)
(-0 4.000921168e-23 -4.517978734e-24)
(-0 3.712575931e-24 -1.20407868e-24)
(-0 1.287309247e-24 -1.029847398e-24)
(-0 5.797120135e-25 4.520385293e-39)
(-0 8.648256767e-42 9.316324907e-27)
(-0 -0 0)
(-0 -0 0)
(-0 -0 0)
(-0 -0 0)
(-0 -0 0)
(-0 -0 0)
(-0 0 -0)
(-0 -0 0)
(-0 -0 -0)
(-0 -0 -0)
(-0 0 -0)
(-0 0 0)
(-0 0 -0)
(-0 -0 0)
(-0 -0 -0)
(-0 -0 0)
(-0 -0 0)
(-0 -0 0)
(-0 -0 -0)
(-0 -0 0)
(-0 0 0)
(-0 -7.411556365e-16 -1.005656409e-15)
(-0 -4.31603061e-13 -1.854634447e-13)
(-0 -1.056598034e-11 -2.711381974e-12)
(-0 -3.585356027e-11 -7.85390581e-12)
(-0 -7.611481687e-11 -2.257992719e-11)
(-0 -1.107330406e-10 -7.015976413e-11)
(-0 -1.779018081e-06 -9.253473758e-06)
(-0 1.645379697e-05 -3540.845524)
(-0 3.440080111e-05 -3456.229657)
(-0 2.151117771e-05 -1.197448334e-05)
(-0 8.292427945e-12 -3.424562807e-12)
(-0 3.106254351e-12 -1.028325681e-12)
(-0 1.090313183e-12 -3.000824239e-13)
(-0 1.777961539e-13 -4.179842765e-14)
(-0 4.294604729e-14 -8.80469992e-15)
(-0 1.069321165e-14 -1.943272123e-15)
(-0 1.590043841e-15 -2.595121694e-16)
(-0 2.055298322e-16 -3.0451148e-17)
(-0 1.132419941e-17 -1.536703946e-18)
(-0 2.788271596e-18 -3.491716976e-19)
(-0 5.065111788e-19 -5.891250685e-20)
(-0 1.476670726e-20 -1.604217166e-21)
(-0 2.488949471e-21 -2.537612294e-22)
(-0 6.858503728e-22 -6.63609747e-23)
(-0 3.323888614e-23 -3.100373327e-24)
(-0 4.845405979e-24 -7.67589066e-25)
(-0 1.00616309e-24 -1.676938483e-25)
(-0 1.463578396e-24 -0)
(-0 8.320193824e-26 1.109359177e-25)
(-0 6.919992416e-27 6.919992416e-27)
(-0 -0 0)
(-0 -0 0)
(-0 -0 0)
(-0 0 -0)
(-0 -0 0)
(-0 -0 -0)
(-0 -0 0)
(-0 -0 -0)
(-0 -0 -0)
(-0 0 0)
(-0 -0 0)
(-0 0 -0)
(-0 0 -0)
(-0 -0 0)
(-0 -0 -0)
(-0 -0 0)
(-0 -0 0)
(-0 -0 -0)
(-0 0 0)
(-0 -0 0)
(-0 -8.754372637e-18 -1.187592291e-17)
(-0 -3.745659199e-14 -1.606731347e-14)
(-0 -2.802654637e-12 -7.208987584e-13)
(-0 -1.924346221e-11 -3.912806369e-12)
(-0 -4.631870915e-11 -9.883622291e-12)
(-0 -2.153487969e-11 -7.198377882e-12)
(-0 -5.349856647e-06 -5.027498865e-06)
(-0 -7.353381717e-05 -4978.684626)
(-0 0.000101407701 -4964.257942)
(-0 0.0001334370275 -7.49379364e-05)
(-0 1.585116518e-11 -5.40119299e-12)
(-0 3.379569463e-12 -9.280368884e-13)
(-0 4.37880379e-13 -1.002667297e-13)
(-0 1.77566626e-13 -3.479412584e-14)
(-0 1.081577991e-13 -1.850435245e-14)
(-0 1.850050871e-14 -2.807951325e-15)
(-0 1.95950652e-15 -2.672585665e-16)
(-0 3.877420032e-16 -4.802852307e-17)
(-0 8.549121547e-17 -9.70241197e-18)
(-0 6.822241314e-18 -7.147009803e-19)
(-0 3.531619273e-19 -3.436987708e-20)
(-0 7.172152961e-20 -6.520278084e-21)
(-0 1.089353856e-20 -9.295712313e-22)
(-0 1.236277941e-21 -9.961441527e-23)
(-0 5.06474245e-23 -3.935745687e-24)
(-0 1.006858897e-23 4.15199545e-25)
(-0 2.383840717e-24 1.168549371e-24)
(-0 1.011976435e-24 8.929203842e-26)
(-0 1.764258818e-26 -1.587832936e-25)
(-0 -0 -3.805995829e-26)
(-0 -0 0)
(-0 -0 0)
(-0 -0 -0)
(-0 0 -0)
(-0 -0 -0)
(-0 -0 0)
(-0 -0 -0)
(-0 -0 -0)
(-0 0 0)
(-0 0 0)
(-0 0 0)
(-0 -0 0)
(-0 -0 0)
(-0 -0 -0)
(-0 -0 0)
(-0 -0 0)
(-0 -0 0)
(-0 0 0)
(-0 0 -0)
(-0 -0 -0)
(-0 -5.808680534e-21 -7.759873653e-21)
(-0 -4.498127824e-16 -1.986107061e-16)
(-0 -2.017044943e-13 -5.894550625e-14)
(-0 -4.988905657e-12 -1.312707853e-12)
(-0 -1.734020055e-11 -4.853970996e-12)
(-0 -2.883217981e-12 -9.791754702e-13)
(-0 -5.932635613e-06 -2.998936672e-06)
(-0 -0.0002403378721 -6172.759991)
(-0 0.0004837120274 -6313.759653)
(-0 0.0002382769206 -0.0001124078982)
(-0 1.24736427e-12 -3.404011138e-13)
(-0 9.382845458e-13 -2.072693463e-13)
(-0 1.921936132e-12 -3.549264315e-13)
(-0 1.819121959e-13 -2.879266762e-14)
(-0 1.371433129e-13 -1.897184228e-14)
(-0 3.985938344e-15 -4.895092669e-16)
(-0 1.665497179e-15 -1.83896512e-16)
(-0 4.331598704e-16 -4.345243487e-17)
(-0 8.999359738e-17 -8.273835004e-18)
(-0 8.745425741e-18 -7.423635831e-19)
(-0 1.591491279e-18 -1.255246467e-19)
(-0 1.212052656e-19 -8.931028852e-21)
(-0 4.550642373e-21 -3.146537852e-22)
(-0 6.83409826e-22 -4.440545212e-23)
(-0 1.073740161e-22 -6.571315306e-24)
(-0 7.308785829e-24 4.856336099e-26)
(-0 1.235218646e-24 3.632996019e-25)
(-0 1.470498388e-25 2.940996777e-26)
(-0 -1.124498768e-25 -1.556998294e-25)
(-0 1.089898806e-25 -0)
(-0 0 -0)
(-0 -0 -0)
(-0 -0 -0)
(-0 0 -0)
(-0 -0 -0)
(-0 -0 0)
(-0 -0 -0)
(-0 -0 0)
(-0 -0 0)
(-0 0 -0)
(-0 0 -0)
(-0 0 -0)
(-0 -0 -0)
(-0 -0 -0)
(-0 0 -0)
(-0 0 0)
(-0 -0 -0)
(-0 -0 0)
(-0 -0 -0)
(-0 -0 -0)
(-0 -4.887929836e-27 -5.849165034e-27)
(-0 -3.028579784e-19 -1.248368938e-19)
(-0 -2.002338107e-15 -5.861592534e-16)
(-0 -3.769713654e-13 -1.05682676e-13)
(-0 -2.150728518e-12 -6.443703157e-13)
(-0 -5.845586804e-14 -1.922307464e-14)
(-0 -4.885636481e-06 -1.858780403e-06)
(-0 -0.0004296624643 -6679.649528)
(-0 0.0008277980421 -6992.224648)
(-0 0.0002720538368 -8.845495012e-05)
(-0 3.370642416e-11 -7.032373973e-12)
(-0 2.367280615e-12 -4.011973573e-13)
(-0 9.936243402e-13 -1.410605533e-13)
(-0 7.319587931e-13 -8.917310727e-14)
(-0 2.657222442e-13 -2.831701731e-14)
(-0 2.83370635e-14 -2.682362681e-15)
(-0 1.71202987e-15 -1.457646681e-16)
(-0 6.565273278e-16 -5.080008109e-17)
(-0 1.163910846e-16 -8.255906779e-18)
(-0 1.745912381e-17 -1.143644619e-18)
(-0 1.521209386e-18 -9.260076915e-20)
(-0 7.476877766e-20 -4.252548212e-21)
(-0 1.567248979e-20 -8.365189874e-22)
(-0 4.921358243e-22 -2.453437225e-23)
(-0 1.325300186e-22 -5.670039689e-24)
(-0 1.071733825e-23 -2.594997156e-26)
(-0 2.120942398e-24 4.922125326e-39)
(-0 3.026260717e-26 -5.749895362e-25)
(-0 1.008753572e-26 -4.035014289e-26)
(-0 3.286996398e-26 6.919992416e-27)
(-0 -0 -0)
(-0 -0 -0)
(-0 -0 0)
(-0 0 -0)
(-0 -0 -0)
(-0 -0 -0)
(-0 -0 -0)
(-0 -0 -0)
(-0 -0 -0)
(-0 0 -0)
(-0 0 -0)
(-0 -0 -0)
(-0 -0 -0)
(-0 -0 -0)
(-0 -0 -0)
(-0 -0 -0)
(-0 -0 -0)
(-0 0 -0)
(-0 -0 0)
(-0 -0 0)
(-0 -2.122112611e-32 -1.975332379e-32)
(-0 -3.461054662e-25 -1.137298949e-25)
(-0 -8.345079946e-19 -2.009251013e-19)
(-0 -3.680554509e-15 -8.605422256e-16)
(-0 -3.901920701e-14 -9.715452773e-15)
(-0 -2.106505804e-14 -5.633748542e-15)
(-0 -3.360763855e-06 -9.330701714e-07)
(-0 -0.0006185833158 -6129.170235)
(-0 0.0009703321044 -6515.802304)
(-0 0.0002250688509 -4.613101863e-05)
(-0 1.47991345e-11 -2.177406938e-12)
(-0 1.509295027e-11 -1.808424252e-12)
(-0 1.20789025e-12 -1.214141204e-13)
(-0 9.368877759e-13 -8.088944146e-14)
(-0 2.256216513e-13 -1.704985885e-14)
(-0 6.063348154e-14 -4.07172761e-15)
(-0 2.064474543e-15 -1.247346027e-16)
(-0 5.745165856e-16 -3.155373491e-17)
(-0 1.419595064e-16 -7.148649886e-18)
(-0 1.41744756e-17 -6.592534242e-19)
(-0 1.052080203e-18 -4.547823101e-20)
(-0 1.611441781e-19 -6.509305251e-21)
(-0 1.951548506e-20 -7.401422616e-22)
(-0 2.174110852e-21 -7.698524317e-23)
(-0 2.733875544e-22 -8.244947542e-24)
(-0 1.824717499e-23 -2.919547999e-25)
(-0 6.884696943e-25 2.024910865e-26)
(-0 1.47931095e-39 -7.967932559e-25)
(-0 2.860833166e-25 -1.560454454e-25)
(-0 0 -0)
(-0 0 -0)
(-0 -0 -0)
(-0 -0 0)
(-0 -0 -0)
(-0 -0 -0)
(-0 -0 -0)
(-0 0 -0)
(-0 0 0)
(-0 -0 0)
(-0 0 0)
(-0 0 -0)
(-0 -0 0)
(-0 -0 -0)
(-0 -0 -0)
(-0 -0 -0)
(-0 -0 0)
(-0 -0 -0)
(-0 0 0)
(-0 0 0)
(-0 -0 -0)
(-0 -3.976570981e-36 -2.322657324e-36)
(-0 -5.080986428e-29 -1.061594065e-29)
(-0 -2.955469482e-24 -4.584454883e-25)
(-0 -9.74781671e-19 -1.46930818e-19)
(-0 -3.257273922e-17 -5.195259352e-18)