/*--------------------------------*- C++ -*----------------------------------*\
  =========                 |
  \\      /  F ield         | OpenFOAM: The Open Source CFD Toolbox
   \\    /   O peration     | Website:  https://openfoam.org
    \\  /    A nd           | Version:  6
     \\/     M anipulation  |
\*---------------------------------------------------------------------------*/
FoamFile
{
    version     2.0;
    format      ascii;
    class       volScalarField;
    location    "0.02";
    object      Num_divU;
}
// * * * * * * * * * * * * * * * * * * * * * * * * * * * * * * * * * * * * * //

dimensions      [0 0 -1 0 0 0 0];

internalField   nonuniform List<scalar> 
2500
(
-4.736901477e-10
-7.939658285e-09
-3.530017713e-08
-6.161570909e-08
-8.285308198e-08
-1.001638619e-07
-1.178437869e-07
-1.318053558e-07
-8.27331067e-08
-7.371420994e-23
-2.695992282e-17
-6.060769751e-17
-9.221874674e-17
-1.229746823e-16
-1.533389351e-16
-1.833803179e-16
-2.130683449e-16
-2.423529382e-16
-2.711820305e-16
-2.99505145e-16
-3.272736934e-16
-3.544409475e-16
-3.809628939e-16
-4.067987517e-16
-4.319104716e-16
-4.562625602e-16
-4.798219047e-16
-5.025582735e-16
-5.244444705e-16
-5.454561997e-16
-5.655719211e-16
-5.847725196e-16
-6.030414281e-16
-6.203643039e-16
-6.3672909e-16
-6.521258047e-16
-6.665464337e-16
-6.799846851e-16
-6.924358441e-16
-7.038965097e-16
-7.143644777e-16
-7.238385242e-16
-7.323183185e-16
-7.398042103e-16
-7.462972119e-16
-7.517988982e-16
-7.563113461e-16
-7.598370931e-16
-7.62378107e-16
-7.639315252e-16
-2.22301142e-08
-6.167615898e-08
-1.104419328e-07
-1.528187525e-07
-1.884855964e-07
-2.144775342e-07
-2.215668943e-07
-1.56733177e-07
-8.108615025e-08
-5.381193613e-17
-1.127588348e-16
-1.708228995e-16
-2.260918684e-16
-2.803655567e-16
-3.340031132e-16
-3.869908292e-16
-4.392465287e-16
-4.906786894e-16
-5.411968197e-16
-5.90714505e-16
-6.391499571e-16
-6.864256809e-16
-7.324686237e-16
-7.772106188e-16
-8.205885139e-16
-8.625441148e-16
-9.030244034e-16
-9.419812131e-16
-9.793714369e-16
-1.0151568e-15
-1.049303468e-15
-1.081782098e-15
-1.112567406e-15
-1.141638167e-15
-1.168976693e-15
-1.194568957e-15
-1.218403718e-15
-1.240472658e-15
-1.260769786e-15
-1.279291204e-15
-1.296034796e-15
-1.311000039e-15
-1.324187752e-15
-1.335600031e-15
-1.345240583e-15
-1.353115217e-15
-1.359234289e-15
-1.363619473e-15
-1.366327082e-15
-6.031384375e-16
-2.102541467e-08
-5.948545801e-08
-1.17117108e-07
-1.714880085e-07
-2.212553157e-07
-2.668015289e-07
-3.029581147e-07
-2.566753944e-07
-1.138852545e-07
-4.407791357e-17
-9.393947367e-17
-1.441167951e-16
-1.921473661e-16
-2.394394216e-16
-2.862186034e-16
-3.324469483e-16
-3.780466881e-16
-4.229366045e-16
-4.670375719e-16
-5.102739122e-16
-5.52574085e-16
-5.938699187e-16
-6.340970621e-16
-6.731956121e-16
-7.111104112e-16
-7.477907273e-16
-7.831899091e-16
-8.172656569e-16
-8.499798268e-16
-8.8129851e-16
-9.111919891e-16
-9.39634268e-16
-9.666032183e-16
-9.92079982e-16
-1.016049073e-15
-1.038497841e-15
-1.059416392e-15
-1.078797283e-15
-1.096635035e-15
-1.112926165e-15
-1.127668597e-15
-1.140861658e-15
-1.152505743e-15
-1.162602161e-15
-1.17115291e-15
-1.178160485e-15
-1.18362695e-15
-1.187549985e-15
-1.189904943e-15
-5.876037304e-16
-2.805207559e-08
-8.027184405e-08
-1.585273449e-07
-2.321613417e-07
-2.971975011e-07
-3.53182119e-07
-3.995718696e-07
-3.496678462e-07
-1.627780427e-07
-4.338821929e-17
-9.225986341e-17
-1.416175243e-16
-1.889385911e-16
-2.355623981e-16
-2.816889887e-16
-3.272745804e-16
-3.722412158e-16
-4.165087279e-16
-4.5999874e-16
-5.026362626e-16
-5.443507544e-16
-5.850754177e-16
-6.247469367e-16
-6.633062142e-16
-7.006986142e-16
-7.368741031e-16
-7.717867045e-16
-8.053946027e-16
-8.376602248e-16
-8.685501566e-16
-8.980349634e-16
-9.260891986e-16
-9.526909246e-16
-9.778216356e-16
-1.001466028e-15
-1.02361154e-15
-1.044248506e-15
-1.063369473e-15
-1.080969057e-15
-1.097043713e-15
-1.111591351e-15
-1.124611114e-15
-1.136103078e-15
-1.146068074e-15
-1.154507281e-15
-1.161421427e-15
-1.1668102e-15
-1.170669455e-15
-1.172988212e-15
-5.862435283e-16
-3.908650699e-08
-1.108247968e-07
-2.159556873e-07
-3.168109558e-07
-4.061260697e-07
-4.797913026e-07
-5.366215432e-07
-4.693976858e-07
-2.19294192e-07
-4.336023654e-17
-9.215443222e-17
-1.414468723e-16
-1.887147331e-16
-2.352897953e-16
-2.813686863e-16
-3.269067605e-16
-3.718257988e-16
-4.16046353e-16
-4.594901075e-16
-5.020819584e-16
-5.437511906e-16
-5.844311492e-16
-6.24058927e-16
-6.625755271e-16
-6.999263186e-16
-7.360611463e-16
-7.709341314e-16
-8.045035571e-16
-8.367319039e-16
-8.675858873e-16
-8.970361506e-16
-9.250572699e-16
-9.516273645e-16
-9.76728008e-16
-1.000343777e-15
-1.022462399e-15
-1.043073948e-15
-1.062171051e-15
-1.07974833e-15
-1.09580212e-15
-1.110330298e-15
-1.123331888e-15
-1.134806739e-15
-1.14475527e-15
-1.153178091e-15
-1.160075475e-15
-1.16544665e-15
-1.169288941e-15
-1.171598049e-15
-5.862269248e-16
-5.266768676e-08
-1.453528177e-07
-2.74338296e-07
-3.992259301e-07
-5.112500928e-07
-6.048642194e-07
-6.772227281e-07
-5.902309862e-07
-2.628696313e-07
-4.337912575e-17
-9.218639892e-17
-1.414904802e-16
-1.88769443e-16
-2.353547785e-16
-2.814429668e-16
-3.269896153e-16
-3.719163605e-16
-4.161440906e-16
-4.595948597e-16
-5.021935565e-16
-5.438690096e-16
-5.845545112e-16
-6.241871692e-16
-6.627081252e-16
-7.000628173e-16
-7.362010147e-16
-7.710768219e-16
-8.046485684e-16
-8.368787905e-16
-8.677341888e-16
-8.971855164e-16
-9.252072983e-16
-9.517777231e-16
-9.768783436e-16
-1.000493795e-15
-1.022611657e-15
-1.04322212e-15
-1.062317773e-15
-1.079893165e-15
-1.095944646e-15
-1.110470006e-15
-1.123468078e-15
-1.134938656e-15
-1.144881897e-15
-1.153298256e-15
-1.160187839e-15
-1.165550187e-15
-1.169383975e-15
-1.171687339e-15
-5.863428826e-16
-6.681970158e-08
-1.786194198e-07
-3.226165546e-07
-4.609256422e-07
-5.845648855e-07
-6.902242553e-07
-7.751481833e-07
-6.645535241e-07
-2.545879154e-07
-4.340069711e-17
-9.222734968e-17
-1.415508958e-16
-1.888478786e-16
-2.354494723e-16
-2.815523833e-16
-3.271130723e-16
-3.720527431e-16
-4.16292883e-16
-4.597555768e-16
-5.023659161e-16
-5.440527454e-16
-5.847489362e-16
-6.243914617e-16
-6.629214695e-16
-7.002845358e-16
-7.364304911e-16
-7.713134189e-16
-8.048916847e-16
-8.371278185e-16
-8.679885198e-16
-8.974445754e-16
-9.25470528e-16
-9.52044595e-16
-9.771482866e-16
-1.000766309e-15
-1.022886167e-15
-1.043498081e-15
-1.062594561e-15
-1.080170164e-15
-1.096221235e-15
-1.110745459e-15
-1.123741638e-15
-1.13520947e-15
-1.145149087e-15
-1.153560821e-15
-1.16044489e-15
-1.165801282e-15
-1.169629492e-15
-1.171928736e-15
-5.864758185e-16
-7.722684574e-08
-1.987548599e-07
-3.397727084e-07
-4.724151292e-07
-5.877682171e-07
-6.858079208e-07
-7.641537064e-07
-6.233363871e-07
-1.562384617e-07
-4.342118802e-17
-9.226404819e-17
-1.416077035e-16
-1.889246006e-16
-2.355444631e-16
-2.816630772e-16
-3.272384383e-16
-3.721916777e-16
-4.164447992e-16
-4.599198282e-16
-5.025420952e-16
-5.44240554e-16
-5.849479997e-16
-6.246010609e-16
-6.631409064e-16
-7.005130267e-16
-7.366673738e-16
-7.715580854e-16
-8.05143528e-16
-8.373862473e-16
-8.682529541e-16
-8.977143502e-16
-9.257451163e-16
-9.5232337e-16
-9.774307284e-16
-1.001051775e-15
-1.023174101e-15
-1.043787871e-15
-1.062885611e-15
-1.080461871e-15
-1.096512873e-15
-1.111036388e-15
-1.124031175e-15
-1.135496804e-15
-1.145433498e-15
-1.153841581e-15
-1.160721539e-15
-1.166073543e-15
-1.16989767e-15
-1.17219376e-15
-5.866132827e-16
-7.924140965e-08
-1.932395758e-07
-3.054678568e-07
-4.071875722e-07
-4.883456742e-07
-5.479556294e-07
-5.816358504e-07
-4.1378207e-07
2.540243899e-08
-4.343935054e-17
-9.229393321e-17
-1.416567467e-16
-1.889943456e-16
-2.356349388e-16
-2.817708692e-16
-3.273611676e-16
-3.723282694e-16
-4.165943866e-16
-4.600819438e-16
-5.027160933e-16
-5.444260261e-16
-5.851444822e-16
-6.248082707e-16
-6.633581621e-16
-7.007396203e-16
-7.369026132e-16
-7.718013608e-16
-8.053942812e-16
-8.376438711e-16
-8.685168211e-16
-8.9798395e-16
-9.260197529e-16
-9.526024796e-16
-9.777136798e-16
-1.001338024e-15
-1.023463068e-15
-1.04407896e-15
-1.063178171e-15
-1.080755306e-15
-1.096806564e-15
-1.111329646e-15
-1.124323357e-15
-1.135787311e-15
-1.145721685e-15
-1.15412694e-15
-1.161003654e-15
-1.166352356e-15
-1.170173346e-15
-1.17246686e-15
-5.867523705e-16
-6.841655652e-08
-1.535935041e-07
-2.133975996e-07
-2.648339132e-07
-2.917509447e-07
-2.813262747e-07
-2.246395414e-07
-4.996280257e-08
1.914201177e-07
-4.345350446e-17
-9.23187259e-17
-1.416976341e-16
-1.890538178e-16
-2.357172515e-16
-2.818732593e-16
-3.274793043e-16
-3.724607467e-16
-4.167398615e-16
-4.602398656e-16
-5.028860894e-16
-5.446074087e-16
-5.853368707e-16
-6.25011149e-16
-6.635711405e-16
-7.009621026e-16
-7.371338805e-16
-7.720408435e-16
-8.056413323e-16
-8.378980038e-16
-8.687774307e-16
-8.982503871e-16
-9.262914503e-16
-9.528788213e-16
-9.779940997e-16
-1.0016219e-15
-1.023749808e-15
-1.044367985e-15
-1.063468926e-15
-1.081047126e-15
-1.097098877e-15
-1.11162185e-15
-1.124614857e-15
-1.13607752e-15
-1.146010106e-15
-1.154413148e-15
-1.161287351e-15
-1.166633415e-15
-1.170451884e-15
-1.172743231e-15
-5.868912032e-16
-4.372654792e-08
-8.487121239e-08
-8.704688122e-08
-9.162741684e-08
-6.634697361e-08
2.564788375e-08
1.971673682e-07
3.855245901e-07
1.722197122e-07
-4.346140966e-17
-9.234498194e-17
-1.417366609e-16
-1.891037148e-16
-2.357891214e-16
-2.819680203e-16
-3.275912032e-16
-3.725878213e-16
-4.168801146e-16
-4.60392351e-16
-5.030504669e-16
-5.447832249e-16
-5.855235462e-16
-6.252082888e-16
-6.63778311e-16
-7.01178743e-16
-7.373594154e-16
-7.722746241e-16
-8.058827922e-16
-8.381465264e-16
-8.690325225e-16
-8.985114125e-16
-9.265578271e-16
-9.531499705e-16
-9.782693708e-16
-1.001900779e-15
-1.024031726e-15
-1.044652354e-15
-1.063755127e-15
-1.081334637e-15
-1.097387119e-15
-1.111910247e-15
-1.124902856e-15
-1.136364623e-15
-1.14629584e-15
-1.154697154e-15
-1.161569351e-15
-1.166913287e-15
-1.170729661e-15
-1.173019015e-15
-5.870279795e-16
-1.155743645e-08
-1.446213287e-08
1.702834009e-08
2.974494379e-08
8.299257033e-08
2.366362682e-07
4.907653383e-07
7.85559492e-07
-6.471550454e-08
-4.34632067e-17
-9.237794383e-17
-1.417851119e-16
-1.891508126e-16
-2.358517486e-16
-2.82053435e-16
-3.276953613e-16
-3.727079696e-16
-4.170139513e-16
-4.605384303e-16
-5.032081885e-16
-5.44952122e-16
-5.857030972e-16
-6.253980607e-16
-6.639779619e-16
-7.013877725e-16
-7.375772683e-16
-7.725006615e-16
-8.061164481e-16
-8.383872769e-16
-8.692797518e-16
-8.987646532e-16
-9.268164442e-16
-9.534133469e-16
-9.785369968e-16
-1.002172049e-15
-1.024306101e-15
-1.044929267e-15
-1.064034079e-15
-1.081615043e-15
-1.097668422e-15
-1.11219195e-15
-1.125184443e-15
-1.136645614e-15
-1.146575855e-15
-1.154975777e-15
-1.161846387e-15
-1.167188535e-15
-1.171003085e-15
-1.173290687e-15
-5.871608289e-16
1.393516712e-08
1.26198925e-08
3.487392314e-08
3.995591402e-08
1.179932934e-07
3.332006895e-07
5.802504263e-07
9.43898606e-07
-1.772314219e-07
-4.346736475e-17
-9.24101408e-17
-1.418477369e-16
-1.892050236e-16
-2.359108278e-16
-2.821295154e-16
-3.277906882e-16
-3.728196555e-16
-4.171397188e-16
-4.606767673e-16
-5.033581263e-16
-5.451129095e-16
-5.858741323e-16
-6.255789811e-16
-6.64168389e-16
-7.015873611e-16
-7.377854638e-16
-7.727169003e-16
-8.063401642e-16
-8.386178991e-16
-8.695168072e-16
-8.990075523e-16
-9.270646769e-16
-9.53666369e-16
-9.787942082e-16
-1.002432941e-15
-1.024570118e-15
-1.045195911e-15
-1.064302845e-15
-1.08188535e-15
-1.097939851e-15
-1.112463913e-15
-1.125456514e-15
-1.136917368e-15
-1.14684687e-15
-1.155245746e-15
-1.162115028e-15
-1.16745567e-15
-1.171268633e-15
-1.173554495e-15
-5.872880064e-16
1.814289703e-08
-3.746249008e-08
-5.820797592e-08
-2.583275862e-08
1.872984601e-07
5.127912739e-07
6.675567665e-07
3.1286365e-07
2.003545754e-07
-4.348821586e-17
-9.242947318e-17
-1.41912224e-16
-1.892739556e-16
-2.359764124e-16
-2.822011042e-16
-3.278778456e-16
-3.729222927e-16
-4.172560371e-16
-4.608056147e-16
-5.034985644e-16
-5.45264034e-16
-5.860352269e-16
-6.257494937e-16
-6.64347921e-16
-7.017755791e-16
-7.379819704e-16
-7.729211567e-16
-8.065516349e-16
-8.388360644e-16
-8.697411673e-16
-8.992376148e-16
-9.272998885e-16
-9.539062431e-16
-9.790382422e-16
-1.002680573e-15
-1.024820881e-15
-1.045449327e-15
-1.064558342e-15
-1.082142565e-15
-1.098198186e-15
-1.112723012e-15
-1.125715876e-15
-1.13717659e-15
-1.147105592e-15
-1.155503645e-15
-1.162371822e-15
-1.167711163e-15
-1.171522607e-15
-1.17380696e-15
-5.874076703e-16
5.076752078e-09
-9.029652147e-08
-1.189498933e-07
-1.494515465e-08
2.614367973e-07
6.201975975e-07
6.553064514e-07
-1.538324972e-06
9.72045749e-07
-4.352847754e-17
-9.243698284e-17
-1.419430028e-16
-1.893433975e-16
-2.360493625e-16
-2.822734455e-16
-3.27959308e-16
-3.730163691e-16
-4.1736257e-16
-4.609238924e-16
-5.036279558e-16
-5.454038106e-16
-5.861845895e-16
-6.259078151e-16
-6.645147592e-16
-7.019505724e-16
-7.381647141e-16
-7.731112033e-16
-8.067485353e-16
-8.390393483e-16
-8.699503283e-16
-8.994521726e-16
-9.275194213e-16
-9.541302382e-16
-9.792662292e-16
-1.00291208e-15
-1.025055426e-15
-1.045686467e-15
-1.064797603e-15
-1.0823835e-15
-1.098440388e-15
-1.112966007e-15
-1.12595928e-15
-1.137420017e-15
-1.147348662e-15
-1.15574606e-15
-1.162613291e-15
-1.167951459e-15
-1.171761565e-15
-1.174044397e-15
-5.875180881e-16
-4.684436397e-08
-1.085369933e-07
8.967120362e-09
1.491670825e-07
-2.02625014e-08
5.076908323e-07
-4.279354563e-07
-3.153863394e-06
1.46341499e-06
-4.35644719e-17
-9.246984328e-17
-1.419353412e-16
-1.893901064e-16
-2.361157164e-16
-2.823436318e-16
-3.280355377e-16
-3.731023142e-16
-4.17459261e-16
-4.61031143e-16
-5.03745167e-16
-5.455305436e-16
-5.86320412e-16
-6.260521401e-16
-6.646670473e-16
-7.021103625e-16
-7.383316491e-16
-7.732849093e-16
-8.069285707e-16
-8.392252739e-16
-8.701417621e-16
-8.996486944e-16
-9.277205569e-16
-9.543355763e-16
-9.794753532e-16
-1.003124548e-15
-1.025270821e-15
-1.045904321e-15
-1.065017563e-15
-1.082605084e-15
-1.098663224e-15
-1.113189698e-15
-1.126183457e-15
-1.137644304e-15
-1.14757271e-15
-1.155969593e-15
-1.162836013e-15
-1.168173134e-15
-1.171981984e-15
-1.17426338e-15
-5.876175461e-16
-9.249809336e-08
-4.694730201e-08
3.266527737e-07
4.812784728e-07
4.092030035e-07
-4.847663488e-07
-5.905540178e-07
-2.366946533e-06
8.426736255e-07
-4.355807999e-17
-9.253704435e-17
-1.419349403e-16
-1.894172844e-16
-2.361645159e-16
-2.8240313e-16
-3.281026606e-16
-3.731782729e-16
-4.175451033e-16
-4.611265194e-16
-5.038492842e-16
-5.456430131e-16
-5.8644098e-16
-6.261804908e-16
-6.648026985e-16
-7.022529075e-16
-7.384806745e-16
-7.734400243e-16
-8.070894646e-16
-8.393915446e-16
-8.703130228e-16
-8.998245575e-16
-9.279006788e-16
-9.545196106e-16
-9.796628247e-16
-1.003315148e-15
-1.025464119e-15
-1.046099937e-15
-1.065215142e-15
-1.082804273e-15
-1.098863603e-15
-1.113390915e-15
-1.126385194e-15
-1.137846197e-15
-1.147774476e-15
-1.156170909e-15
-1.163036634e-15
-1.168372801e-15
-1.172180474e-15
-1.174460474e-15
-5.877043978e-16
-6.965632793e-08
-2.385772705e-09
4.444471302e-07
1.007052461e-06
-1.571785623e-07
-5.094459717e-07
3.252707617e-07
-7.407900532e-07
3.201371036e-07
-4.352132194e-17
-9.257545083e-17
-1.419715979e-16
-1.894512726e-16
-2.362042634e-16
-2.824513406e-16
-3.281587529e-16
-3.732428392e-16
-4.176186962e-16
-4.61208834e-16
-5.039393751e-16
-5.45740184e-16
-5.865450503e-16
-6.262912367e-16
-6.649199081e-16
-7.023761774e-16
-7.386096801e-16
-7.735744639e-16
-8.072289475e-16
-8.395357887e-16
-8.704616993e-16
-8.99977333e-16
-9.280572403e-16
-9.546795976e-16
-9.798259575e-16
-1.003481056e-15
-1.025632512e-15
-1.046270465e-15
-1.065387443e-15
-1.082978039e-15
-1.099038507e-15
-1.113566654e-15
-1.126561406e-15
-1.13802261e-15
-1.147950772e-15
-1.156346836e-15
-1.163211911e-15
-1.168547217e-15
-1.172353789e-15
-1.174632462e-15
-5.877771205e-16
2.969574378e-08
-3.05437659e-07
3.525259953e-07
6.833474146e-07
2.482725625e-07
1.645807557e-06
4.645483084e-07
9.643475619e-07
5.593579366e-08
-4.350146448e-17
-9.254501477e-17
-1.420125572e-16
-1.89490567e-16
-2.362402588e-16
-2.82490731e-16
-3.282042119e-16
-3.732955476e-16
-4.17679264e-16
-4.612768352e-16
-5.040140502e-16
-5.458209089e-16
-5.866314403e-16
-6.26383119e-16
-6.650170283e-16
-7.024783877e-16
-7.387166794e-16
-7.736860792e-16
-8.073448891e-16
-8.396557986e-16
-8.705854738e-16
-9.001046349e-16
-9.281877863e-16
-9.548131073e-16
-9.799621855e-16
-1.003619739e-15
-1.025773314e-15
-1.046413143e-15
-1.065531695e-15
-1.083123576e-15
-1.099185082e-15
-1.113713959e-15
-1.126709116e-15
-1.138170513e-15
-1.148098598e-15
-1.156494309e-15
-1.163358795e-15
-1.168693299e-15
-1.172498839e-15
-1.174776329e-15
-5.878342818e-16
5.546035076e-07
1.011931402e-08
2.168413076e-07
3.558188634e-07
6.578698841e-07
1.853648973e-06
1.544913006e-06
1.553683051e-06
-5.926980023e-07
-4.353213985e-17
-9.249781013e-17
-1.420337767e-16
-1.895162014e-16
-2.362649727e-16
-2.825189827e-16
-3.282380669e-16
-3.733356967e-16
-4.177257437e-16
-4.613292031e-16
-5.040717819e-16
-5.458836001e-16
-5.866987245e-16
-6.264547019e-16
-6.650926974e-16
-7.025579118e-16
-7.388000385e-16
-7.737730208e-16
-8.074353095e-16
-8.397494865e-16
-8.706822292e-16
-9.002042e-16
-9.282900165e-16
-9.549177706e-16
-9.800691117e-16
-1.003728627e-15
-1.025884016e-15
-1.046525398e-15
-1.065645288e-15
-1.083238253e-15
-1.099300575e-15
-1.113830046e-15
-1.126825627e-15
-1.13828713e-15
-1.148215119e-15
-1.15661051e-15
-1.163474473e-15
-1.168808218e-15
-1.172612816e-15
-1.174889117e-15
-5.878745767e-16
1.038153602e-06
5.410263374e-07
4.307311889e-07
1.758451336e-07
2.627554611e-07
1.586788611e-06
1.799944013e-06
2.084681903e-06
-1.029072711e-06
-4.357683766e-17
-9.248877321e-17
-1.420474484e-16
-1.895269441e-16
-2.362746241e-16
-2.825330983e-16
-3.282586258e-16
-3.733620366e-16
-4.177571795e-16
-4.613648942e-16
-5.041112706e-16
-5.459266763e-16
-5.867452339e-16
-6.265043711e-16
-6.651452723e-16
-7.026132448e-16
-7.388580138e-16
-7.738335853e-16
-8.074984036e-16
-8.398149633e-16
-8.707499399e-16
-9.002740566e-16
-9.283618397e-16
-9.549914558e-16
-9.801444403e-16
-1.003805534e-15
-1.025962282e-15
-1.046604848e-15
-1.065725793e-15
-1.083319592e-15
-1.099382582e-15
-1.113912522e-15
-1.12690833e-15
-1.138369933e-15
-1.148297782e-15
-1.156692863e-15
-1.163556304e-15
-1.168889347e-15
-1.172693055e-15
-1.174968309e-15
-5.87896812e-16
1.03113054e-06
8.146194499e-07
1.066053876e-06
3.987272263e-07
-4.352790738e-07
1.144227418e-06
1.341953329e-06
2.577597911e-06
-9.641394155e-07
-4.359300751e-17
-9.250831907e-17
-1.420573773e-16
-1.895296821e-16
-2.362733464e-16
-2.825338021e-16
-3.282650658e-16
-3.733734748e-16
-4.177726219e-16
-4.613832242e-16
-5.041317033e-16
-5.459491278e-16
-5.867696645e-16
-6.265307006e-16
-6.651733161e-16
-7.02642847e-16
-7.388891086e-16
-7.73866235e-16
-8.075325105e-16
-8.398504948e-16
-8.707868739e-16
-9.003123233e-16
-9.284013567e-16
-9.550321362e-16
-9.801862675e-16
-1.003848375e-15
-1.026006041e-15
-1.046649462e-15
-1.065771067e-15
-1.083365445e-15
-1.099428849e-15
-1.113959063e-15
-1.12695502e-15
-1.138416606e-15
-1.148344284e-15
-1.156739021e-15
-1.163601986e-15
-1.168934362e-15
-1.172737294e-15
-1.175011611e-15
-5.878999925e-16
4.863153824e-07
1.103100607e-07
1.273115795e-06
1.417201903e-06
-5.154282338e-07
-4.254907814e-07
6.950383259e-07
1.9834997e-06
-7.647483096e-07
-4.358752249e-17
-9.253192741e-17
-1.420594911e-16
-1.8953056e-16
-2.362690867e-16
-2.825262427e-16
-3.282589107e-16
-3.733697171e-16
-4.177711587e-16
-4.613832408e-16
-5.041324732e-16
-5.459502957e-16
-5.867711929e-16
-6.265325886e-16
-6.651754772e-16
-7.026453932e-16
-7.388920002e-16
-7.738694922e-16
-8.075361778e-16
-8.398546219e-16
-8.707914727e-16
-9.00317397e-16
-9.284069076e-16
-9.550382093e-16
-9.801928168e-16
-1.003855412e-15
-1.026013521e-15
-1.046657312e-15
-1.065779249e-15
-1.083373884e-15
-1.099437473e-15
-1.113967749e-15
-1.126963723e-15
-1.138425164e-15
-1.148352607e-15
-1.15674701e-15
-1.163609506e-15
-1.168941289e-15
-1.172743482e-15
-1.175016922e-15
-5.878832986e-16
3.724054431e-08
-1.011928746e-06
3.48760718e-07
1.684894863e-06
2.491255638e-07
-1.489788688e-06
7.132362534e-08
7.275106795e-07
-7.107268443e-07
-4.358075978e-17
-9.255000119e-17
-1.420508866e-16
-1.895287906e-16
-2.36265207e-16
-2.825152702e-16
-3.282431363e-16
-3.733518003e-16
-4.177524486e-16
-4.613640837e-16
-5.041126697e-16
-5.459294083e-16
-5.86749131e-16
-6.265092392e-16
-6.651510214e-16
-7.026198142e-16
-7.388655376e-16
-7.738422294e-16
-8.075082285e-16
-8.398260656e-16
-8.707624075e-16
-9.002879245e-16
-9.283771434e-16
-9.550081921e-16
-9.801626593e-16
-1.003825116e-15
-1.025983144e-15
-1.046626871e-15
-1.065748754e-15
-1.083343282e-15
-1.09940679e-15
-1.113936968e-15
-1.126932728e-15
-1.138393953e-15
-1.148321108e-15
-1.156715111e-15
-1.163577146e-15
-1.168908387e-15
-1.172709924e-15
-1.174982652e-15
-5.878459952e-16
6.33505463e-08
-1.508291068e-06
-6.12635489e-07
9.565064174e-07
6.517941686e-07
-1.637668986e-06
-3.861968378e-07
-2.802498017e-07
-6.717235259e-07
-4.357757384e-17
-9.254986859e-17
-1.420299549e-16
-1.895158665e-16
-2.362562749e-16
-2.825005102e-16
-3.282190855e-16
-3.733210588e-16
-4.177171137e-16
-4.613254394e-16
-5.04071295e-16
-5.458855617e-16
-5.867025517e-16
-6.264599675e-16
-6.65099028e-16
-7.025654158e-16
-7.388088441e-16
-7.737834917e-16
-8.074476245e-16
-8.397638152e-16
-8.706986593e-16
-9.002228529e-16
-9.283109042e-16
-9.549409624e-16
-9.800945644e-16
-1.003756308e-15
-1.025913718e-15
-1.046556905e-15
-1.06567832e-15
-1.083272447e-15
-1.099335553e-15
-1.113865365e-15
-1.126860788e-15
-1.138321646e-15
-1.148248412e-15
-1.156642022e-15
-1.163503593e-15
-1.168834354e-15
-1.172635335e-15
-1.174907433e-15
-5.87787666e-16
3.950062692e-07
-1.17831124e-06
-7.610660336e-07
2.275566857e-07
4.125908193e-07
-1.47048508e-06
-7.00859058e-07
-3.728678371e-07
-7.174633047e-07
-4.357671576e-17
-9.253639926e-17
-1.42007515e-16
-1.894875297e-16
-2.362340362e-16
-2.824770145e-16
-3.281854049e-16
-3.732776548e-16
-4.176658144e-16
-4.612677175e-16
-5.040084215e-16
-5.458181077e-16
-5.866308286e-16
-6.263839531e-16
-6.650189527e-16
-7.024814123e-16
-7.387212837e-16
-7.736925982e-16
-8.073537344e-16
-8.39667091e-16
-8.705994256e-16
-9.001213251e-16
-9.282074113e-16
-9.54835701e-16
-9.799877412e-16
-1.003648129e-15
-1.025804335e-15
-1.046446497e-15
-1.065566973e-15
-1.083160377e-15
-1.099222767e-15
-1.113752005e-15
-1.126746887e-15
-1.13820725e-15
-1.148133575e-15
-1.15652674e-15
-1.163387879e-15
-1.168718186e-15
-1.17251868e-15
-1.174790311e-15
-5.877079731e-16
6.505628923e-07
-6.127741915e-07
-3.884974262e-07
-8.321666735e-09
6.63933187e-08
-9.811797568e-07
-4.923252172e-07
6.772714054e-07
-6.685163691e-07
-4.35691424e-17
-9.250968396e-17
-1.41992914e-16
-1.894470972e-16
-2.361937082e-16
-2.824383686e-16
-3.281388771e-16
-3.732203557e-16
-4.175982776e-16
-4.611912289e-16
-5.03924267e-16
-5.457272404e-16
-5.865337078e-16
-6.262809395e-16
-6.649103211e-16
-7.023674917e-16
-7.386024168e-16
-7.73569136e-16
-8.072259683e-16
-8.395354241e-16
-8.704641891e-16
-8.999829003e-16
-9.280660774e-16
-9.546918211e-16
-9.798415893e-16
-1.003499965e-15
-1.025654442e-15
-1.046295063e-15
-1.065414238e-15
-1.083006447e-15
-1.0990679e-15
-1.113596296e-15
-1.126590447e-15
-1.138050203e-15
-1.14797598e-15
-1.156368656e-15
-1.163229376e-15
-1.168559274e-15
-1.172359407e-15
-1.174630625e-15
-5.876067857e-16
6.851787466e-07
-2.39896658e-07
-4.080658886e-08
7.352139827e-08
3.975521933e-08
-2.253021016e-07
8.574561123e-08
2.230348409e-06
-5.906830381e-07
-4.355702139e-17
-9.246819712e-17
-1.419837039e-16
-1.894030365e-16
-2.361396785e-16
-2.823822042e-16
-3.280764681e-16
-3.731472132e-16
-4.175134059e-16
-4.610954716e-16
-5.038187467e-16
-5.456129547e-16
-5.86411267e-16
-6.261508588e-16
-6.647729998e-16
-7.022234449e-16
-7.384519962e-16
-7.734128287e-16
-8.07064203e-16
-8.393686423e-16
-8.702927744e-16
-8.998073208e-16
-9.278867342e-16
-9.545090994e-16
-9.796558902e-16
-1.003311626e-15
-1.025463761e-15
-1.046102373e-15
-1.065219782e-15
-1.082810499e-15
-1.098870658e-15
-1.113397946e-15
-1.126391223e-15
-1.137850205e-15
-1.147775366e-15
-1.156167543e-15
-1.163027821e-15
-1.168357372e-15
-1.1721572e-15
-1.17442822e-15
-5.874841862e-16
5.437221305e-07
-6.417432628e-08
1.300938428e-07
2.987943187e-07
4.269071789e-07
5.815073388e-07
6.776600309e-07
3.203100309e-06
-6.987357572e-07
-4.355042003e-17
-9.24357973e-17
-1.41969611e-16
-1.893571736e-16
-2.360776288e-16
-2.823110747e-16
-3.279974694e-16
-3.730570596e-16
-4.17410292e-16
-4.609797886e-16
-5.036915496e-16
-5.454751297e-16
-5.862635173e-16
-6.259937314e-16
-6.646071256e-16
-7.020492714e-16
-7.382701361e-16
-7.732237859e-16
-8.068684318e-16
-8.39166711e-16
-8.700852093e-16
-8.995946338e-16
-9.276693919e-16
-9.542876375e-16
-9.794307179e-16
-1.003083169e-15
-1.025232411e-15
-1.045868484e-15
-1.064983718e-15
-1.082572553e-15
-1.098631153e-15
-1.113157129e-15
-1.126149311e-15
-1.137607425e-15
-1.147531871e-15
-1.155923504e-15
-1.1627834e-15
-1.16811261e-15
-1.171912277e-15
-1.174183146e-15
-5.873404201e-16
2.735477095e-07
4.463174774e-08
2.785952115e-07
6.585565819e-07
1.00536005e-06
1.076180841e-06
1.485721984e-06
2.716071438e-06
-3.500816858e-07
-4.354402477e-17
-9.241563844e-17
-1.419301786e-16
-1.893021227e-16
-2.360074037e-16
-2.82227666e-16
-3.27902707e-16
-3.729495084e-16
-4.172886354e-16
-4.608440969e-16
-5.035426774e-16
-5.453138916e-16
-5.860906086e-16
-6.258098234e-16
-6.644128535e-16
-7.018453307e-16
-7.380571073e-16
-7.730022348e-16
-8.066390395e-16
-8.389300116e-16
-8.698418427e-16
-8.993451867e-16
-9.274144931e-16
-9.540277868e-16
-9.791664443e-16
-1.002814967e-15
-1.024960781e-15
-1.045593815e-15
-1.064706487e-15
-1.082293091e-15
-1.098349813e-15
-1.112874229e-15
-1.125865166e-15
-1.137322262e-15
-1.147245976e-15
-1.155637007e-15
-1.162496478e-15
-1.167825489e-15
-1.171624995e-15
-1.173895894e-15
-5.871758411e-16
-4.328784349e-08
1.065683667e-07
5.451562319e-07
1.146659042e-06
1.146896259e-06
4.253418315e-07
2.497329223e-06
1.321523415e-06
8.323429289e-08
-4.352994266e-17
-9.24232449e-17
-1.418660559e-16
-1.89235093e-16
-2.359290225e-16
-2.821342246e-16
-3.277939159e-16
-3.728251177e-16
-4.17148446e-16
-4.606885207e-16
-5.033723749e-16
-5.45129523e-16
-5.858929124e-16
-6.255995277e-16
-6.641906927e-16
-7.01612046e-16
-7.3781339e-16
-7.727487776e-16
-8.063765026e-16
-8.386591199e-16
-8.69563263e-16
-8.990596059e-16
-9.271225918e-16
-9.537301776e-16
-9.788637634e-16
-1.002507788e-15
-1.024649576e-15
-1.045279169e-15
-1.06438878e-15
-1.081972875e-15
-1.098027407e-15
-1.112550106e-15
-1.12553959e-15
-1.136995602e-15
-1.14691843e-15
-1.155308883e-15
-1.162167952e-15
-1.167496753e-15
-1.171296261e-15
-1.173567288e-15
-5.869910825e-16
-2.239744605e-07
-9.264691694e-08
5.968664169e-07
1.361522147e-06
7.918201119e-07
-9.87378476e-07
2.337162057e-06
-5.450458492e-08
1.788496834e-07
-4.349927291e-17
-9.245036528e-17
-1.417990214e-16
-1.891585299e-16
-2.358417806e-16
-2.82030704e-16
-3.276718553e-16
-3.726845908e-16
-4.169902347e-16
-4.605134077e-16
-5.031809336e-16
-5.449224563e-16
-5.856709112e-16
-6.25363398e-16
-6.639412408e-16
-7.013500792e-16
-7.375396553e-16
-7.724640899e-16
-8.060816288e-16
-8.383547991e-16
-8.692503217e-16
-8.987387986e-16
-9.26794649e-16
-9.533957823e-16
-9.785236173e-16
-1.002162479e-15
-1.024299786e-15
-1.044925421e-15
-1.064031714e-15
-1.081612878e-15
-1.09766508e-15
-1.112185771e-15
-1.125173703e-15
-1.136628472e-15
-1.146550399e-15
-1.154940241e-15
-1.161798917e-15
-1.167127603e-15
-1.17092714e-15
-1.173198412e-15
-5.867868139e-16
-2.546675418e-08
-2.129663571e-07
3.383700628e-07
9.525053685e-07
4.622636872e-07
-1.460586262e-06
1.251880782e-06
-1.274885134e-06
4.584858069e-07
-4.346205762e-17
-9.242198395e-17
-1.417341225e-16
-1.890781425e-16
-2.357462412e-16
-2.819161708e-16
-3.275363754e-16
-3.725284629e-16
-4.168146329e-16
-4.603192528e-16
-5.0296896e-16
-5.446932784e-16
-5.854252864e-16
-6.25102188e-16
-6.636653579e-16
-7.010602986e-16
-7.372369205e-16
-7.721491753e-16
-8.057553773e-16
-8.380181409e-16
-8.689040915e-16
-8.983838104e-16
-9.264317363e-16
-9.530257669e-16
-9.781471803e-16
-1.001780395e-15
-1.023912707e-15
-1.044533991e-15
-1.063636505e-15
-1.081214542e-15
-1.097264078e-15
-1.111782636e-15
-1.124768842e-15
-1.136222334e-15
-1.146143291e-15
-1.154532472e-15
-1.161390828e-15
-1.16671939e-15
-1.170519094e-15
-1.172790711e-15
-5.865638845e-16
2.502277417e-07
-2.873527795e-07
1.280728108e-07
5.213487331e-07
1.775443693e-07
-2.838277723e-07
-3.005402672e-07
-2.105030684e-06
5.455533498e-07
-4.344248825e-17
-9.233609486e-17
-1.41662094e-16
-1.889941067e-16
-2.356427535e-16
-2.817901509e-16
-3.27387217e-16
-3.72357123e-16
-4.166222334e-16
-4.601067445e-16
-5.027370563e-16
-5.444426797e-16
-5.851568497e-16
-6.248167897e-16
-6.63363871e-16
-7.007437401e-16
-7.369061156e-16
-7.718050931e-16
-8.053989925e-16
-8.376503464e-16
-8.685258158e-16
-8.979960211e-16
-9.260352604e-16
-9.526214695e-16
-9.777358975e-16
-1.001362909e-15
-1.023489761e-15
-1.044106351e-15
-1.063204811e-15
-1.080779394e-15
-1.096826104e-15
-1.111342305e-15
-1.124326719e-15
-1.135778768e-15
-1.145698746e-15
-1.154087296e-15
-1.160945322e-15
-1.166273809e-15
-1.170073729e-15
-1.172345811e-15
-5.863232471e-16
4.25741107e-07
1.12246933e-07
-1.23417602e-07
3.821252404e-07
-3.092772935e-07
1.029854109e-07
-7.946798591e-07
-2.174899528e-06
4.465989526e-07
-4.34388363e-17
-9.225918794e-17
-1.415896937e-16
-1.88906493e-16
-2.3553126e-16
-2.816528218e-16
-3.272247991e-16
-3.721710597e-16
-4.164137482e-16
-4.598766477e-16
-5.024860645e-16
-5.441715732e-16
-5.848665002e-16
-6.245081822e-16
-6.63038e-16
-7.004015346e-16
-7.365485959e-16
-7.714332143e-16
-8.05013762e-16
-8.37252788e-16
-8.681169593e-16
-8.975768483e-16
-9.256067269e-16
-9.521845374e-16
-9.772914202e-16
-1.000911761e-15
-1.023032751e-15
-1.043644225e-15
-1.062738348e-15
-1.080309252e-15
-1.096352896e-15
-1.110866693e-15
-1.123849146e-15
-1.135299766e-15
-1.145218687e-15