/*--------------------------------*- C++ -*----------------------------------*\
  =========                 |
  \\      /  F ield         | OpenFOAM: The Open Source CFD Toolbox
   \\    /   O peration     | Website:  https://openfoam.org
    \\  /    A nd           | Version:  6
     \\/     M anipulation  |
\*---------------------------------------------------------------------------*/
FoamFile
{
    version     2.0;
    format      ascii;
    class       volScalarField;
    location    "0.02";
    object      p;
}
// * * * * * * * * * * * * * * * * * * * * * * * * * * * * * * * * * * * * * //

dimensions      [1 -1 -2 0 0 0 0];

internalField   nonuniform List<scalar> 
2500
(
0.006349955957
0.01888966515
0.03126010053
0.04330416651
0.05492089617
0.0660119156
0.07674773814
0.0860598675
27276.11328
27285.09532
27293.97879
27302.714
27311.23348
27319.47688
27327.39242
27334.93782
27342.08077
27348.7988
27355.07872
27360.91587
27366.31296
27371.279
27375.82804
27379.97803
27383.7498
27387.16602
27390.25047
27393.02732
27395.52055
27397.75357
27399.74887
27401.52778
27403.11035
27404.51521
27405.75958
27406.8592
27407.82844
27408.68027
27409.42636
27410.07713
27410.64184
27411.12863
27411.54462
27411.89597
27412.18789
27412.4248
27412.61026
27412.74709
27412.83732
27412.88225
0.006417477819
0.01907821986
0.03155633597
0.04369045484
0.05537479745
0.06651018371
0.07727620094
0.08657612713
27276.11383
27285.1712
27294.12713
27302.92977
27311.50965
27319.80488
27327.76272
27335.34048
27342.50596
27349.2372
27355.52186
27361.35631
27366.74447
27371.6965
27376.22761
27380.35684
27384.10595
27387.49844
27390.55877
27393.31165
27395.78151
27397.99208
27399.96607
27401.72498
27403.28893
27404.67661
27405.90523
27406.99053
27407.94681
27408.78699
27409.52267
27410.16421
27410.72079
27411.20048
27411.61033
27411.95644
27412.24399
27412.47733
27412.65999
27412.79477
27412.88373
27412.92828
0.006554663688
0.01946297444
0.03216317732
0.04448149817
0.05630474457
0.06752846243
0.07835647803
0.08759325618
27276.11489
27285.3256
27294.42893
27303.36852
27312.07074
27320.47064
27328.51351
27336.15594
27343.36599
27350.12283
27356.41594
27362.24389
27367.61299
27372.53587
27377.03011
27381.11689
27384.81989
27388.16427
27391.17583
27393.88038
27396.30319
27398.46863
27400.39987
27402.11869
27403.64539
27404.99873
27406.19591
27407.25261
27408.18304
27409
27409.71496
27410.33811
27410.87849
27411.34405
27411.7417
27412.07741
27412.35625
27412.58249
27412.75957
27412.89024
27412.97651
27413.01974
0.006768345646
0.02006146634
0.033106069
0.045709074
0.05774563445
0.06910314346
0.08002438564
0.08916067765
27276.11652
27285.56402
27294.89462
27304.04479
27312.9344
27321.49369
27329.66511
27337.40421
27344.6797
27351.47276
27357.77582
27363.59101
27368.92849
27373.80473
27378.24096
27382.26168
27385.89348
27389.16398
27392.10102
27394.73201
27397.08347
27399.18067
27401.04741
27402.70589
27404.17662
27405.47844
27406.62853
27407.64246
27408.53428
27409.31659
27410.00062
27410.59638
27411.11266
27411.55718
27411.93667
27412.25691
27412.52281
27412.73849
27412.90728
27413.03181
27413.11405
27413.15527
0.00706797907
0.02089940684
0.03442423187
0.04742265501
0.05975242289
0.07128982035
0.08233500779
0.09133358112
27276.1189
27285.89533
27295.54088
27304.98177
27314.12858
27322.9049
27331.24937
27339.1165
27346.47633
27353.31325
27359.62419
27365.41654
27370.70598
27375.51444
27379.86821
27383.79635
27387.32938
27390.49822
27393.33338
27395.86435
27398.11923
27400.12443
27401.90452
27403.48216
27404.87813
27406.11129
27407.19875
27408.1559
27408.99654
27409.73297
27410.37614
27410.93571
27411.42017
27411.83697
27412.19254
27412.49241
27412.74127
27412.94305
27413.10092
27413.21738
27413.2943
27413.33287
0.007465945642
0.02201098211
0.0361703389
0.04968920812
0.06239916024
0.07416121007
0.0853564143
0.09418996954
27276.12345
27286.33263
27296.39196
27306.21295
27315.69345
27324.74823
27333.3113
27341.33648
27348.79634
27355.68026
27361.99177
27367.74567
27372.96522
27377.67967
27381.92197
27385.72707
27389.13049
27392.16722
27394.87103
27397.27394
27399.40587
27401.29455
27402.96536
27404.44147
27405.74382
27406.89127
27407.90074
27408.78734
27409.56451
27410.24416
27410.83681
27411.35172
27411.79697
27412.17961
27412.50574
27412.78056
27413.00848
27413.19318
27413.33764
27413.44419
27413.51457
27413.5499
0.007976624373
0.02343772899
0.03841001592
0.05259390117
0.06577984755
0.07780561015
0.0891616294
0.0978095131
27276.13023
27286.8937
27297.4815
27307.78475
27317.68421
27327.08349
27335.91146
27344.12215
27351.69274
27358.62024
27364.91759
27370.60982
27375.73034
27380.31786
27384.41382
27388.06045
27391.29928
27394.17019
27396.71071
27398.95566
27400.937
27402.68378
27404.22223
27405.57588
27406.76578
27407.81063
27408.72704
27409.52968
27410.2315
27410.84388
27411.3768
27411.83896
27412.23797
27412.58039
27412.87188
27413.11725
27413.32058
27413.48523
27413.61395
27413.70887
27413.77157
27413.80309
0.008614363397
0.02522554221
0.04121971503
0.05624036571
0.07000965686
0.08232430699
0.09381197083
0.1022800022
27276.1393
27287.60288
27298.85569
27309.76042
27320.1753
27329.99028
27339.12917
27347.5483
27355.23271
27362.19088
27368.44916
27374.04639
27379.02924
27383.44845
27387.35591
27390.80257
27393.83703
27396.50464
27398.84708
27400.90218
27402.70391
27404.28261
27405.66519
27406.8754
27407.93417
27408.85986
27409.66856
27410.37433
27410.98945
27411.5246
27411.98908
27412.39095
27412.73717
27413.03373
27413.28577
27413.49764
27413.67301
27413.81489
27413.92574
27414.00746
27414.06146
27414.08865
0.009389331423
0.02741791829
0.04468100839
0.06074927893
0.07522566162
0.08782564195
0.09932472982
0.1076669397
27276.1475
27288.49327
27300.57801
27312.22597
27323.2664
27333.57334
27343.0669
27351.70953
27359.49935
27366.46196
27372.64241
27378.09802
27382.89254
27387.09163
27390.75972
27393.95788
27396.74264
27399.16533
27401.27194
27403.10323
27404.69508
27406.07884
27407.28181
27408.3277
27409.23701
27410.02749
27410.71446
27411.31112
27411.82887
27412.27753
27412.66555
27413.00017
27413.28762
27413.53321
27413.74147
27413.9162
27414.06059
27414.17726
27414.26834
27414.33546
27414.37983
27414.40225
0.01030019243
0.0300426985
0.04886802909
0.06625424944
0.08158962921
0.09441763992
0.1056287635
0.1140158696
27276.15092
27289.61243
27302.73712
27315.29905
27327.09102
27337.96992
27347.85576
27356.72392
27364.59365
27371.51573
27377.56111
27382.81147
27387.35207
27391.26668
27394.63436
27397.52757
27400.01136
27402.14319
27403.97323
27405.54491
27406.89556
27408.05711
27409.05683
27409.91792
27410.66007
27411.30006
27411.8521
27412.32829
27412.7389
27413.09265
27413.39697
27413.65815
27413.88154
27414.07166
27414.23233
27414.36674
27414.47754
27414.56691
27414.63658
27414.6879
27414.72186
27414.7391
0.01132289329
0.03308810138
0.05382138454
0.07289095386
0.08929541931
0.1021977092
0.1125306395
0.1213208879
27276.15526
27291.03215
27305.45893
27319.14197
27331.82868
27343.35962
27353.66251
27362.73706
27370.63603
27377.44675
27383.27548
27388.23542
27392.4384
27395.98955
27398.98441
27401.50768
27403.63308
27405.42393
27406.93404
27408.20882
27409.28635
27410.1985
27410.97181
27411.62841
27412.18669
27412.66199
27413.06706
27413.41253
27413.70729
27413.95874
27414.17308
27414.35549
27414.51032
27414.64118
27414.75109
27414.84254
27414.91759
27414.97792
27415.02484
27415.05938
27415.08229
27415.09404
0.01239660513
0.03646041718
0.0594782704
0.08070939853
0.09846116521
0.1110572019
0.1195632974
0.1291061148
27276.16843
27292.8591
27308.92428
27323.98096
27337.72196
27349.97734
27360.69773
27369.92607
27377.7671
27384.36033
27389.8593
27394.41709
27398.17738
27401.26959
27403.807
27405.88665
27407.59041
27408.98651
27410.13133
27411.07115
27411.84377
27412.47998
27413.00481
27413.43855
27413.79769
27414.09557
27414.34306
27414.54897
27414.72049
27414.86347
27414.98267
27415.08201
27415.16468
27415.23328
27415.28994
27415.33639
27415.37404
27415.40401
27415.42716
27415.44419
27415.45556
27415.46159
0.01341829525
0.03992313974
0.0655360444
0.08951594354
0.1089989159
0.1205358263
0.1261178626
0.1367465097
27276.19835
27295.25563
27313.39776
27330.13513
27345.10052
27358.12993
27369.22508
27378.50271
27386.14643
27392.36877
27397.385
27401.39706
27404.5853
27407.10537
27409.08832
27410.64255
27411.85647
27412.80149
27413.53478
27414.10187
27414.53883
27414.87413
27415.13021
27415.32467
27415.47131
27415.58096
27415.66208
27415.72129
27415.76375
27415.7935
27415.8137
27415.82679
27415.83471
27415.83893
27415.84063
27415.8407
27415.83984
27415.83857
27415.83731
27415.83633
27415.83586
27415.83601
0.01426386721
0.04302174687
0.07133253196
0.09897797299
0.1214073504
0.1317987303
0.1340346472
0.1475791084
27276.28412
27298.48371
27319.27532
27338.06049
27354.41452
27368.21654
27379.57004
27388.71359
27395.94765
27401.584
27405.91564
27409.20171
27411.66231
27413.47921
27414.79936
27415.73978
27416.39253
27416.82932
27417.10559
27417.26392
27417.33678
27417.34879
27417.31854
27417.25993
27417.18331
27417.0963
27417.00447
27416.91183
27416.82123
27416.73463
27416.65338
27416.57834
27416.51003
27416.44874
27416.39459
27416.3476
27416.3077
27416.27482
27416.24884
27416.22966
27416.21722
27416.21143
0.0147768387
0.04482274653
0.07491968579
0.1063312497
0.1343477717
0.1468627794
0.1467135869
0.1738795026
27276.71928
27302.98114
27327.15829
27348.41567
27366.27968
27380.75135
27392.12504
27400.83438
27407.34721
27412.10471
27415.49272
27417.83272
27419.384
27420.35079
27420.89115
27421.12575
27421.14563
27421.01878
27420.79552
27420.51264
27420.1968
27419.86699
27419.53654
27419.21457
27418.90709
27418.61788
27418.34912
27418.10182
27417.8762
27417.67195
27417.48841
27417.32473
27417.17993
27417.05303
27416.94304
27416.84905
27416.77022
27416.70583
27416.65524
27416.61796
27416.5936
27416.58191
0.01461885399
0.04322544971
0.06968175915
0.09564112038
0.1233039897
0.1384241849
0.1417798835
0.2235912165
27277.37951
27309.32474
27337.95895
27362.16208
27381.53598
27396.38379
27407.34461
27415.15231
27420.50288
27423.99585
27426.11876
27427.25345
27427.69118
27427.64982
27427.28976
27426.72751
27426.04654
27425.3058
27424.54621
27423.79553
27423.07202
27422.38711
27421.74738
27421.15605
27420.61397
27420.12044
27419.67376
27419.2716
27418.91131
27418.59009
27418.30515
27418.05381
27417.83354
27417.64201
27417.47712
27417.33698
27417.21997
27417.1247
27417.05002
27416.99502
27416.95901
27416.94154
0.01308592077
0.03464737124
0.04370364759
0.03115147175
0.01063882144
-0.003674104441
0.03129708023
0.2938106985
27277.90717
27318.57241
27353.18696
27380.73444
27401.31695
27415.90309
27425.71789
27431.9283
27435.51727
27437.25818
27437.73415
27437.37223
27436.47854
27435.2686
27433.89164
27432.44908
27431.00833
27429.6128
27428.28915
27427.05245
27425.90988
27424.86331
27423.91114
27423.04962
27422.27367
27421.57756
27420.95532
27420.401
27419.90885
27419.47347
27419.08985
27418.75341
27418.46002
27418.20599
27417.98807
27417.80343
27417.64964
27417.52466
27417.42681
27417.35477
27417.30757
27417.28455
0.008384960936
0.01389540178
-0.01024422393
-0.1040644927
-0.2482705598
-0.3553677569
-0.2585588236
0.3713879752
27279.63713
27333.21869
27375.4778
27406.26767
27427.09327
27440.19437
27447.69688
27451.32724
27452.38119
27451.78683
27450.18868
27448.02396
27445.58326
27443.0555
27440.56018
27438.16991
27435.92598
27433.84904
27431.94629
27430.21643
27428.65296
27427.24636
27425.98557
27424.85895
27423.8549
27422.96223
27422.17041
27421.46969
27420.85112
27420.30662
27419.82892
27419.41154
27419.04873
27418.73548
27418.46739
27418.24069
27418.05217
27417.89916
27417.77946
27417.69137
27417.63363
27417.60539
0.001858418931
-0.01556754308
-0.07322091852
-0.2285443435
-0.4617977342
-0.6490264703
-0.5522704133
0.4078978054
27285.3003
27358.27909
27409.23457
27441.7617
27460.59493
27470.08656
27473.55057
27473.30491
27470.89536
27467.32092
27463.21116
27458.95291
27454.77616
27450.81103
27447.12473
27443.74545
27440.67774
27437.91219
27435.43167
27433.21521
27431.2404
27429.48486
27427.92712
27426.54704
27425.32611
27424.24745
27423.29585
27422.45769
27421.72083
27421.07451
27420.50924
27420.01666
27419.5895
27419.22142
27418.90695
27418.64141
27418.42086
27418.242
27418.10219
27417.99932
27417.93187
27417.89882
-0.01055999925
-0.04307787281
-0.1085104721
-0.246885328
-0.4634950099
-0.6018113874
-0.5501725519
0.3558739042
27305.59219
27404.33326
27461.42237
27490.95172
27503.4436
27506.01166
27503.11817
27497.44965
27490.57682
27483.39212
27476.3836
27469.80156
27463.75856
27458.28878
27453.38326
27449.01047
27445.12839
27441.69139
27438.65412
27435.97349
27433.60976
27431.52681
27429.69228
27428.07733
27426.65642
27425.40701
27424.30929
27423.34587
27422.50151
27421.76288
27421.1184
27420.55795
27420.07279
27419.65537
27419.29921
27418.9988
27418.7495
27418.54749
27418.38964
27418.27354
27418.1974
27418.16005
-0.02926594032
-0.06277968588
-0.1169463157
-0.2012570756
-0.3220909065
-0.3863436571
-0.3765090959
0.1638439932
27375.33441
27491.13092
27541.19567
27557.19638
27556.22958
27547.40747
27535.46679
27522.80256
27510.5727
27499.28894
27489.1309
27480.11231
27472.16872
27465.20324
27459.11001
27453.78574
27449.13495
27445.07193
27441.52101
27438.41604
27435.69951
27433.32159
27431.23915
27429.4149
27427.81658
27426.41628
27425.18988
27424.11645
27423.17793
27422.35865
27421.64508
27421.02553
27420.48994
27420.02967
27419.63735
27419.30672
27419.03254
27418.81047
27418.63703
27418.50949
27418.42584
27418.38476
-0.04675292425
-0.07642204943
-0.1177378151
-0.1687733585
-0.2302418939
-0.2635288691
-0.2586039987
-0.1588904806
27563.14393
27643.1313
27655.11
27640.44856
27616.89298
27591.93389
27568.54554
27547.7248
27529.62466
27514.06148
27500.7398
27489.34894
27479.60159
27471.24627
27464.06867
27457.88845
27452.55472
27447.94138
27443.94302
27440.47126
27437.45183
27434.82211
27432.52911
27430.52785
27428.78006
27427.25307
27425.9189
27424.75361
27423.73661
27422.85023
27422.07928
27421.41072
27420.83336
27420.33764
27419.91543
27419.55983
27419.26511
27419.02651
27418.84021
27418.70323
27418.61339
27418.56925
-0.0602871147
-0.08667750603
-0.1202595779
-0.1599174621
-0.2002898942
-0.2427356432
-0.2388174077
-0.4793229007
27915.11356
27863.19769
27795.78163
27732.64638
27678.98275
27634.89978
27599.06132
27569.92859
27546.14075
27526.59321
27510.41842
27496.94262
27485.64303
27476.11227
27468.03071
27461.14551
27455.25498
27450.19684
27445.83947
27442.07525
27438.81561
27435.98712
27433.52857
27431.38865
27429.52411
27427.89841
27426.48049
27425.24393
27424.16616
27423.2279
27422.41265
27421.70629
27421.09674
27420.57373
27420.12852
27419.75373
27419.44322
27419.19191
27418.99574
27418.85152
27418.75692
27418.71043
-0.06941004055
-0.09388917265
-0.1233105359
-0.1593880564
-0.190639066
-0.2503301516
-0.2128233916
-0.6811496597
28348.3988
28099.64462
27932.24053
27815.39826
27731.49941
27669.62254
27622.87091
27586.78667
27558.41589
27535.75182
27517.39796
27502.36025
27489.91599
27479.52958
27470.79703
27463.40867
27457.12372
27451.75249
27447.14377
27443.17576
27439.74938
27436.7834
27434.21068
27431.97535
27430.03068
27428.33735
27426.86214
27425.57691
27424.45769
27423.48409
27422.63868
27421.9066
27421.27519
27420.73364
27420.27281
27419.885
27419.56378
27419.30386
27419.10099
27418.95186
27418.85404
27418.80596
-0.07397765673
-0.09760382692
-0.1249964564
-0.1596842282
-0.185331492
-0.2532089694
-0.1665470734
-0.7267934218
28654.54081
28256.58152
28018.06454
27865.1735
27761.9743
27689.20824
27636.00602
27595.92705
27564.98183
27540.59881
27521.06068
27505.1842
27492.13122
27481.29342
27472.21971
27464.56911
27458.07955
27452.54654
27447.80838
27443.7357
27440.2239
27437.18763
27434.55663
27432.2727
27430.28725
27428.55955
27427.05526
27425.74533
27424.60511
27423.6136
27422.75292
27422.00784
27421.36536
27420.81444
27420.34572
27419.95133
27419.6247
27419.36043
27419.15418
27419.00257
27418.90313
27418.85424
-0.07397764817
-0.09760379423
-0.1249963946
-0.1596841261
-0.1853313548
-0.2532087887
-0.1665470378
-0.7267883094
28654.54146
28256.58198
28018.06485
27865.1737
27761.97443
27689.20831
27636.00606
27595.92708
27564.98185
27540.59883
27521.06071
27505.18424
27492.13126
27481.29348
27472.21977
27464.56919
27458.07964
27452.54664
27447.80849
27443.73582
27440.22403
27437.18777
27434.55678
27432.27285
27430.28741
27428.55972
27427.05544
27425.74552
27424.60529
27423.61379
27422.75312
27422.00804
27421.36557
27420.81465
27420.34594
27419.95155
27419.62493
27419.36066
27419.15441
27419.0028
27418.90336
27418.85446
-0.06941001844
-0.09388907927
-0.1233103541
-0.1593877549
-0.1906386464
-0.2503295703
-0.2128230191
-0.6811349557
28348.4005
28099.64593
27932.24142
27815.39883
27731.49976
27669.62274
27622.87102
27586.78674
27558.41594
27535.75188
27517.39804
27502.36035
27489.91612
27479.52975
27470.79723
27463.4089
27457.12399
27451.75279
27447.1441
27443.17612
27439.74977
27436.78382
27434.21112
27431.97581
27430.03117
27428.33786
27426.86267
27425.57746
27424.45826
27423.48467
27422.63928
27421.90722
27421.27581
27420.73428
27420.27346
27419.88566
27419.56445
27419.30453
27419.10167
27418.95254
27418.85473
27418.80664
-0.06028708993
-0.08667736441
-0.1202592801
-0.159916947
-0.2002891021
-0.2427345036
-0.2388160627
-0.4792958637
27915.11668
27863.19984
27795.78302
27732.64722
27678.98323
27634.90004
27599.06145
27569.92866
27546.14081
27526.59329
27510.41854
27496.94279
27485.64325
27476.11255
27468.03105
27461.14591
27455.25543
27450.19735
27445.84002
27442.07585
27438.81626
27435.98782
27433.52931
27431.38942
27429.52493
27427.89926
27426.48137
27425.24484
27424.1671
27423.22887
27422.41365
27421.70731
27421.09779
27420.57479
27420.1296
27419.75483
27419.44433
27419.19303
27418.99686
27418.85265
27418.75806
27418.71157
-0.04675291406
-0.07642188709
-0.1177374194
-0.1687725693
-0.2302404557
-0.2635265899
-0.2586007492
-0.1588545485
27563.14834
27643.13408
27655.11166
27640.4495
27616.89346
27591.9341
27568.54562
27547.72483
27529.6247
27514.06157
27500.73995
27489.34917
27479.6019
27471.24666
27464.06915
27457.88901
27452.55535
27447.94209
27443.94379
27440.4721
27437.45274
27434.82308
27432.53014
27430.52894
27428.78121
27427.25426
27425.92014
27424.75489
27423.73793
27422.85159
27422.08068
27421.41215
27420.83482
27420.33913
27419.91694
27419.56137
27419.26666
27419.02808
27418.84179
27418.70482
27418.61498
27418.57084
-0.02926595361
-0.0627795567
-0.1169459316
-0.2012561262
-0.3220888272
-0.3863399736
-0.3765042237
0.1638825993
27375.3396
27491.13382
27541.19723
27557.19713
27556.22987
27547.40751
27535.46673
27522.8025
27510.57268
27499.28901
27489.13107
27480.11259
27472.1691
27465.20374
27459.11062
27453.78646
27449.13577
27445.07284
27441.52201
27438.41713
27435.70068
27433.32285
27431.24048
27429.4163
27427.81805
27426.41782
27425.19147
27424.11811
27423.17964
27422.3604
27421.64688
27421.02737
27420.49182
27420.03159
27419.63929
27419.30869
27419.03453
27418.81249
27418.63907
27418.51154
27418.42789
27418.38682
-0.01056000781
-0.04307782575
-0.108510325
-0.2468848959
-0.4634937136
-0.6018085591
-0.5501690762
0.3559015318
27305.59632
27404.33535
27461.42329
27490.95195
27503.44347
27506.01138
27503.11789
27497.44944
27490.57672
27483.39216
27476.38378
27469.80189
27463.75903
27458.28939
27453.38401
27449.01134
27445.12939
27441.69251
27438.65535
27435.97483
27433.6112
27431.52835
27429.69392
27428.07905
27426.65822
27425.40889
27424.31125
27423.3479
27422.50359
27421.76503
27421.1206
27420.56021
27420.07509
27419.65771
27419.30159
27419.00122
27418.75195
27418.54996
27418.39213
27418.27605
27418.19992
27418.16257
0.001858425623
-0.01556756245
-0.0732211065
-0.2285450409
-0.4617986427
-0.6490268564
-0.5522708631
0.4079006819
27285.30066
27358.27952
27409.23436
27441.76107
27460.59415
27470.08582
27473.54997
27473.3045
27470.89515
27467.32091
27463.21135
27458.95328
27454.77672
27450.81176
27447.12562
27443.7465
27440.67893
27437.91352
27435.43314
27433.2168
27431.24211
27429.48669
27427.92905
27426.54908
27425.32825
27424.24968
27423.29817
27422.46009
27421.72331
27421.07706
27420.51185
27420.01934
27419.59223
27419.2242
27418.90977
27418.64428
27418.42376
27418.24493
27418.10514
27418.00229
27417.93485
27417.9018
0.00838495865
0.0138953605
-0.01024450046
-0.1040655106
-0.2482726723
-0.3553706973
-0.2585617822
0.3713860897
27279.63707
27333.21817
27375.47626
27406.26589
27427.09167
27440.19309
27447.69594
27451.32662
27452.38087
27451.78678
27450.18888
27448.02439
27445.5839
27443.05635
27440.56122
27438.17113
27435.92737
27433.85059
27431.94799
27430.21828
27428.65495
27427.24848
27425.98781
27424.86131
27423.85737
27422.96481
27422.1731
27421.47247
27420.85399
27420.30957
27419.83195
27419.41463
27419.05189
27418.7387
27418.47066
27418.244
27418.05552
27417.90254
27417.78288
27417.69481
27417.63707
27417.60884
0.01308591842
0.03464733546
0.04370346013
0.03115090322
0.01063762557
-0.00367608597
0.0312947032
0.2939297803
27277.92388
27318.57154
27353.18334
27380.73111
27401.31438
27415.90123
27425.71661
27431.92749
27435.51686
27437.25811
27437.73438
27437.37273
27436.47929
27435.26959
27433.89284
27432.45048
27431.00992
27429.61457
27428.2911
27427.05456
27425.91215
27424.86572
27423.9137
27423.05231
27422.27648
27421.5805
27420.95837
27420.40415
27419.91211
27419.47682
27419.09329
27418.75693
27418.46361
27418.20965
27417.99179
27417.8072
27417.65346
27417.52851
27417.43069
27417.35867
27417.31148
27417.28848
0.01461883825
0.04322538889
0.06968160953
0.09564083553
0.1233035563
0.1384234488
0.1417786493
0.2233337422
27277.34461
27309.30868
27337.95016
27362.15671
27381.53249
27396.38148
27407.3431
27415.15139
27420.50244
27423.9958
27426.11905
27427.25405
27427.69206
27427.65095
27427.29113
27426.72911
27426.04835
27425.30781
27424.54841
27423.79791
27423.07457
27422.38983
27421.75026
27421.15907
27420.61713
27420.12374
27419.67718
27419.27514
27418.91496
27418.59384
27418.30901
27418.05776
27417.83757
27417.64612
27417.48128
27417.34121
27417.22425
27417.12902
27417.05438
27416.9994
27416.9634
27416.94594
0.01477681369
0.04482266508
0.0749195277
0.1063309832
0.1343474038
0.1468623323
0.1467129887
0.1735456493
27276.6743
27302.96143
27327.14818
27348.40981
27366.27599
27380.74895
27392.1235
27400.83348
27407.3468
27412.10473
27415.4931
27417.83343
27419.38501
27420.35208
27420.8927
27421.12754
27421.14765
27421.02103
27420.79797
27420.51529
27420.19964
27419.87002
27419.53974
27419.21793
27418.9106
27418.62155
27418.35292
27418.10575
27417.88025
27417.67612
27417.49269
27417.32911
27417.1844
27417.05758
27416.94766
27416.85374
27416.77497
27416.71062
27416.66007
27416.62282
27416.59848
27416.58679
0.01426383926
0.04302165773
0.07133237244
0.09897772667
0.1214070052
0.1317983307
0.1340342808
0.1475413073
27276.27909
27298.47595
27319.26929
27338.05621
27354.41153
27368.21449
27379.56871
27388.71283
27395.94737
27401.58414
27405.91616
27409.20256
27411.66348
27413.48067
27414.8011
27415.74178
27416.39478
27416.83181
27417.10831
27417.26685
27417.33991
27417.35213
27417.32206
27417.26363
27417.18718
27417.10033
27417.00866
27416.91616
27416.82569
27416.73922
27416.65808
27416.58315
27416.51494
27416.45374
27416.39968
27416.35276
27416.31292
27416.28009
27416.25415
27416.23501
27416.22258
27416.2168
0.01341826857
0.0399230563
0.06553589972
0.08951573537
0.1089986487
0.1205355232
0.1261175732
0.1367814204
27276.20308
27295.25535
27313.39576
27330.13289
27345.09858
27358.12845
27369.22409
27378.50219
27386.14633
27392.36908
27397.38568
27401.39809
27404.58665
27407.10702
27409.09026
27410.64477
27411.85896
27412.80423
27413.53777
27414.10509
27414.54227
27414.87778
27415.13406
27415.32871
27415.47554
27415.58537
27415.66665
27415.72601
27415.76862
27415.79851
27415.81883
27415.83205
27415.84007
27415.8444
27415.84619
27415.84633
27415.84554
27415.84433
27415.84311
27415.84217
27415.84171
27415.84188
0.01239658116
0.03646034388
0.05947814646
0.08070922512
0.09846095295
0.1110569683
0.1195630517
0.1291918812
27276.18012
27292.86305
27308.92482
27323.9802
27337.7209
27349.9764
27360.69709
27369.92581
27377.76722
27384.36083
27389.86016
27394.4183
27398.17892
27401.27145
27403.80916
27405.88911
27407.59315
27408.98952
27410.13459
27411.07466
27411.84751
27412.48396
27413.009
27413.44295
27413.80228
27414.10035
27414.34802
27414.5541
27414.72578
27414.8689
27414.98825
27415.08772
27415.1705
27415.23921
27415.29596
27415.3425
27415.38023
27415.41025
27415.43346
27415.45052
27415.46191
27415.46796
0.01132287239
0.03308803864
0.05382128044
0.07289081058
0.08929524509
0.1021975168
0.1125304188
0.1213976238
27276.16578
27291.03601
27305.45988
27319.14172
27331.82807
27343.35905
27353.66217
27362.73704
27370.63637
27377.44745
27383.27654
27388.23683
27392.44014
27395.99162
27398.9868
27401.51037
27403.63607
27405.4272
27406.93759
27408.21262
27409.29041
27410.2028
27410.97634
27411.63316
27412.19166
27412.66716
27413.07241
27413.41807
27413.71299
27413.9646
27414.17909
27414.36165
27414.5166
27414.64758
27414.75759
27414.84914
27414.92427
27414.98466
27415.03164
27415.06622
27415.08915
27415.10092
0.01030017444
0.03004264534
0.04886794194
0.06625413101
0.08158948394
0.09441747368
0.1056285747
0.1140173106
27276.1512
27289.61247
27302.73676
27315.29848
27327.09046
27337.96952
27347.85564
27356.72412
27364.59419
27371.51663
27377.56237
27382.81309
27387.35403
27391.26898
27394.63698
27397.53051
27400.01461
27402.14674
27403.97707
27405.54902
27406.89993
27408.06174
27409.06171
27409.92303
27410.66541
27411.30561
27411.85786
27412.33424
27412.74503
27413.09895
27413.40343
27413.66476
27413.88829
27414.07853
27414.23932
27414.37383
27414.48472
27414.57416
27414.64389
27414.69525
27414.72924
27414.7465
0.009389316076
0.0274178734
0.04468093529
0.06074918039
0.07522554019
0.08782549938
0.09932458506
0.1076067275
27276.13935
27288.48969
27300.57614
27312.22485
27323.26572
27333.57302
27343.06692
27351.70991
27359.50009
27366.46306
27372.64387
27378.09985
27382.89472
27387.09416
27390.76258
27393.96107
27396.74616
27399.16916
27401.27606
27403.10765
27404.69978
27406.08381
27407.28704
27408.33318
27409.24273
27410.03344
27410.72062
27411.31749
27411.83543
27412.28428
27412.67246
27413.00725
27413.29484
27413.54057
27413.74895
27413.92378
27414.06827
27414.18503
27414.27617
27414.34334
27414.38774
27414.41017
0.008614350402
0.0252255045
0.04121965388
0.05624028363
0.07000955666
0.08232419082
0.09381185675
0.1022184269
27276.13094
27287.5985
27298.85328
27309.75905
27320.17458
27329.99004
27339.12933
27347.54885
27355.23363
27362.19218
27368.45083
27374.04842
27379.03164
27383.45121
27387.35902
27390.80603
27393.84081
27396.50875
27398.85151
27400.90691
27402.70894
27404.28792
27405.67077
27406.88125
27407.94027
27408.8662
27409.67513
27410.38112
27410.99645
27411.53179
27411.99646
27412.39849
27412.74487
27413.04158
27413.29375
27413.50574
27413.68121
27413.82318
27413.9341
27414.01588
27414.06991
27414.09712
0.007976613398
0.02343769734
0.03840996481
0.05259383276
0.0657797648
0.07780551677
0.08916153075
0.09777516358
27276.12555
27286.8905
27297.47948
27307.78355
27317.68362
27327.08339
27335.91178
27344.12288
27351.69386
27358.62173
27364.91947
27370.61208
27375.73297
27380.32086
27384.41718
27388.06416
27391.30334
27394.17459
27396.71544
27398.96071
27400.94236
27402.68944
27404.22817
27405.58211
27406.77227
27407.81738
27408.73403
27409.5369
27410.23894
27410.85152
27411.38463
27411.84698
27412.24616
27412.58873
27412.88036
27413.12586
27413.3293
27413.49405
27413.62285
27413.71783
27413.78058
27413.81211
0.00746593634
0.02201095541
0.03617029596
0.04968915081
0.06239909125
0.07416113326
0.08535633014
0.09417770898
27276.12177
27286.33091
27296.39066
27306.21215
27315.69312
27324.74833
27333.31182
27341.33739
27348.79764
27355.68196
27361.99386
27367.74814
27372.96808
27377.6829
27381.92558
27385.73105
27389.13482
27392.17191
27394.87607
27397.27931
27399.41157
27401.30056
27402.97168
27404.44808
27405.7507
27406.89842
27407.90814
27408.79499
27409.57239
27410.25226
27410.84512
27411.36021
27411.80564
27412.18845
27412.51473
27412.78968
27413.01773
27413.20254
27413.34709
27413.45371
27413.52413
27413.55948
0.007067971121
0.02089938411
0.0344241954
0.04742260648
0.05975236472
0.0712897559
0.08233493872
0.09133284746
27276.11879
27285.89465
27295.54024
27304.98138
27314.12854
27322.90524
27331.25009
27339.1176
27346.47782
27353.31514
27359.62648
27365.41922
27370.70906
27375.51791
27379.87207
27383.80059
27387.334
27390.50321
27393.33872
27395.87004
27398.12526
27400.13079
27401.9112
27403.48915
27404.88541
27406.11886
27407.20658
27408.16399
27409.00487
27409.74153
27410.38491
27410.94468
27411.42934
27411.84631
27412.20204
27412.50206
27412.75106
27412.95295
27413.11092
27413.22747
27413.30444
27413.34304
0.006768338762
0.02006144665
0.03310603742
0.04570903199
0.05774558403
0.06910308716
0.08002432539
0.08916062132
27276.11652
27285.56378
27294.89438
27304.04473
27312.93461
27321.49424
27329.66602
27337.4055
27344.68138
27351.47484
27357.7783
27363.5939
27368.93179
27373.80844
27378.24507
27382.26619
27385.89838
27389.16927
27392.10668
27394.73804
27397.08985
27399.18739
27401.05447
27402.71326
27404.1843
27405.48642
27406.63679
27407.65099
27408.54306
27409.32561
27410.00988
27410.60584
27411.12232
27411.56703
27411.9467
27412.2671
27412.53315
27412.74895
27412.91786
27413.04249
27413.12479
27413.16605
0.006554657595
0.01946295695
0.03216314921
0.04448146074
0.05630469953
0.06752841184
0.07835642393
0.0875932023
27276.11489
27285.32555
27294.42893
27303.36868
27312.07116
27320.47136
27328.51459
27336.1574
27343.36784
27350.12509
27356.41861
27362.24698
27367.6165
27372.53981
27377.03447
27381.12166
27384.82507
27388.16985
27391.1818
27393.88673
27396.30992
27398.47572
27400.4073
27402.12646
27403.65348
27405.00713
27406.2046
27407.26158
27408.19228
27409.0095
27409.72469
27410.34806
27410.88866
27411.35442
27411.75225
27412.08813
27412.36713
27412.59351
27412.77073
27412.90151
27412.98788