/*--------------------------------*- C++ -*----------------------------------*\
  =========                 |
  \\      /  F ield         | OpenFOAM: The Open Source CFD Toolbox
   \\    /   O peration     | Website:  https://openfoam.org
    \\  /    A nd           | Version:  6
     \\/     M anipulation  |
\*---------------------------------------------------------------------------*/
FoamFile
{
    version     2.0;
    format      ascii;
    class       surfaceScalarField;
    location    "0.02";
    object      phi;
}
// * * * * * * * * * * * * * * * * * * * * * * * * * * * * * * * * * * * * * //

dimensions      [0 3 -1 0 0 0 0];

internalField   nonuniform List<scalar> 
4900
(
-2.643664959e-09
-8.548023436e-11
-2.431850654e-09
-2.118143067e-10
-2.10099904e-09
-3.308516188e-10
-1.667123229e-09
-4.338758194e-10
-1.151626324e-09
-5.154969172e-10
-5.805507667e-10
-5.710755719e-10
-2.059793494e-11
-5.599528487e-10
1.191267137e-17
-2.059796584e-11
-8.958845813e-22
-1.106642853e-25
-8.882957727e-22
-7.588808613e-24
-8.734656311e-22
-1.48340238e-23
-8.518961933e-22
-2.157816537e-23
-8.242915557e-22
-2.761791704e-23
-7.915082599e-22
-3.280100414e-23
-7.544993037e-22
-3.703103708e-23
-7.142584253e-22
-4.026728507e-23
-6.717694149e-22
-4.251969224e-23
-6.279638774e-22
-4.384043637e-23
-5.836893094e-22
-4.431361818e-23
-5.396878878e-22
-4.404455033e-23
-4.965852303e-22
-4.314978497e-23
-4.548876507e-22
-4.174861909e-23
-4.149860701e-22
-3.995643925e-23
-3.771646839e-22
-3.787996526e-23
-3.416126359e-22
-3.56142431e-23
-3.084372213e-22
-3.324111633e-23
-2.776774592e-22
-3.082885648e-23
-2.493171925e-22
-2.84326351e-23
-2.232971587e-22
-2.609555379e-23
-1.995257067e-22
-2.384999773e-23
-1.778880172e-22
-2.17191318e-23
-1.582538163e-22
-1.971840822e-23
-1.404836563e-22
-1.785699799e-23
-1.244338957e-22
-1.613909298e-23
-1.099605329e-22
-1.45650518e-23
-9.692205783e-23
-1.31323812e-23
-8.518148298e-23
-1.183655754e-23
-7.46077004e-23
-1.067170037e-23
-6.507629661e-23
-9.631114553e-24
-5.646993892e-23
-8.707718781e-24
-4.867842865e-23
-7.894378754e-24
-4.159849928e-23
-7.184162119e-24
-3.513342165e-23
-6.570531472e-24
-2.919246202e-23
-6.047491433e-24
-2.369021998e-23
-5.60970884e-24
-1.854584004e-23
-5.252638979e-24
-1.368200588e-23
-4.972743001e-24
-9.023343517e-24
-4.7680789e-24
-4.492800449e-24
-4.640325516e-24
-4.602806588e-24
-2.780135501e-09
-1.751120374e-10
-2.557524906e-09
-4.344249102e-10
-2.209390801e-09
-6.789857399e-10
-1.752904419e-09
-8.903622235e-10
-1.210188086e-09
-1.058213277e-09
-6.093969145e-10
-1.171866774e-09
-2.025168293e-11
-1.149098112e-09
1.167550214e-17
-4.084968301e-11
-9.033837094e-22
-2.183470102e-25
-8.955397999e-22
-1.544046701e-23
-8.802087514e-22
-3.018130954e-23
-8.579351779e-22
-4.387633735e-23
-8.29474154e-22
-5.611149818e-23
-7.957380812e-22
-6.657744963e-23
-7.577355923e-22
-7.508162239e-23
-7.165110836e-22
-8.154752049e-23
-6.730905692e-22
-8.600345808e-23
-6.284375752e-22
-8.856408812e-23
-5.834208138e-22
-8.940831198e-23
-5.387937086e-22
-8.87567184e-23
-4.951846313e-22
-8.685089985e-23
-4.530959948e-22
-8.393610084e-23
-4.129100622e-22
-8.024784732e-23
-3.748993624e-22
-7.600258346e-23
-3.392398424e-22
-7.139192776e-23
-3.060252299e-22
-6.657993524e-23
-2.752814464e-22
-6.170267547e-23
-2.469802667e-22
-5.686946014e-23
-2.210517125e-22
-5.216513745e-23
-1.973949125e-22
-4.765298033e-23
-1.758873344e-22
-4.337780958e-23
-1.563924222e-22
-3.936909697e-23
-1.387657486e-22
-3.564388129e-23
-1.22859838e-22
-3.220939949e-23
-1.08527836e-22
-2.906538651e-23
-9.562620135e-23
-2.620603375e-23
-8.401658923e-23
-2.362161979e-23
-7.356707637e-23
-2.12998413e-23
-6.415286266e-23
-1.922687912e-23
-5.565656202e-23
-1.738823735e-23
-4.79681774e-23
-1.576939238e-23
-4.098483702e-23
-1.435628651e-23
-3.461035359e-23
-1.313569793e-23
-2.875465565e-23
-1.209551578e-23
-2.333313171e-23
-1.122494743e-23
-1.826593412e-23
-1.051468517e-23
-1.34773509e-23
-9.957055954e-24
-8.895659758e-24
-9.546131247e-24
-4.455294265e-24
-9.277442109e-24
-9.144952788e-24
-3.044297866e-09
-2.742696508e-10
-2.799118968e-09
-6.796038166e-10
-2.41762058e-09
-1.060484145e-09
-1.917875984e-09
-1.390106845e-09
-1.32372962e-09
-1.652359673e-09
-6.654204307e-10
-1.830176002e-09
-2.229073922e-11
-1.792227847e-09
1.639855786e-17
-6.314047559e-11
-9.186745328e-22
-3.368991731e-25
-9.102782111e-22
-2.384313594e-23
-8.939017213e-22
-4.657132666e-23
-8.701688015e-22
-6.763000996e-23
-8.399391492e-22
-8.63688197e-23
-8.042418753e-22
-1.023092028e-22
-7.642016335e-22
-1.151630797e-22
-7.20967594e-22
-1.248294323e-22
-6.75652092e-22
-1.313733988e-22
-6.292828994e-22
-1.349941836e-22
-5.827704251e-22
-1.359880396e-22
-5.368891132e-22
-1.347115098e-22
-4.922710071e-22
-1.315485766e-22
-4.494088211e-22
-1.268838041e-22
-4.086657546e-22
-1.210822238e-22
-3.702895256e-22
-1.144757526e-22
-3.344285295e-22
-1.073553238e-22
-3.011485164e-22
-9.996763021e-23
-2.704486555e-22
-9.251531573e-23
-2.422762609e-22
-8.515954101e-23
-2.165397803e-22
-7.80240151e-23
-1.931198902e-22
-7.11997775e-23
-1.718787082e-22
-6.475020318e-23
-1.526672441e-22
-5.87158684e-23
-1.353312669e-22
-5.311904932e-23
-1.197157974e-22
-4.796772851e-23
-1.05668436e-22
-4.3259059e-23
-9.304172727e-23
-3.898228619e-23
-8.169474297e-23
-3.512116005e-23
-7.149404296e-23
-3.165588812e-23
-6.231414943e-23
-2.856468808e-23
-5.403764782e-23
-2.582500033e-23
-4.655500638e-23
-2.34144181e-23
-3.976418873e-23
-2.131138824e-23
-3.357011822e-23
-1.949572927e-23
-2.788404141e-23
-1.794900729e-23
-2.262283164e-23
-1.665480322e-23
-1.770827573e-23
-1.559889619e-23
-1.306640411e-23
-1.476936985e-23
-8.626939734e-24
-1.415660282e-23
-4.322725781e-24
-1.375300237e-23
-1.355229351e-23
-3.45421435e-09
-3.88049592e-10
-3.174387163e-09
-9.594310158e-10
-2.741481758e-09
-1.493389573e-09
-2.174747799e-09
-1.956840836e-09
-1.500358833e-09
-2.326748682e-09
-7.522699033e-10
-2.578264982e-09
-2.481555862e-11
-2.51968225e-09
2.343909572e-17
-8.795610801e-11
-9.422861395e-22
-4.794065606e-25
-9.330025387e-22
-3.313298462e-23
-9.149571678e-22
-6.462998296e-23
-8.889052291e-22
-9.370234161e-23
-8.55878098e-22
-1.19423158e-22
-8.170952488e-22
-1.411259729e-22
-7.738683097e-22
-1.58430582e-22
-7.275125517e-22
-1.712323179e-22
-6.792743512e-22
-1.796652021e-22
-6.302785301e-22
-1.84049982e-22
-5.814958067e-22
-1.848370028e-22
-5.337280947e-22
-1.825516015e-22
-4.876080521e-22
-1.777470057e-22
-4.436088937e-22
-1.709672133e-22
-4.020607322e-22
-1.627203489e-22
-3.631703254e-22
-1.534616755e-22
-3.270418453e-22
-1.435847045e-22
-2.936970048e-22
-1.334185806e-22
-2.630934971e-22
-1.232299607e-22
-2.351411886e-22
-1.132278263e-22
-2.097158586e-22
-1.035699682e-22
-1.866705182e-22
-9.437018917e-23
-1.658444846e-22
-8.570555378e-23
-1.47070465e-22
-7.762324485e-23
-1.301799322e-22
-7.014676966e-23
-1.150070746e-22
-6.328139241e-23
-1.013915825e-22
-5.70187622e-23
-8.918050272e-23
-5.1340766e-23
-7.82293627e-23
-4.622267186e-23
-6.84027307e-23
-4.163564531e-23
-5.957435021e-23
-3.754872812e-23
-5.162695836e-23
-3.393036648e-23
-4.44518761e-23
-3.074956951e-23
-3.794843805e-23
-2.797677029e-23
-3.202331454e-23
-2.558445162e-23
-2.658976658e-23
-2.354758905e-23
-2.156686533e-23
-2.184395351e-23
-1.687870151e-23
-2.04543047e-23
-1.245359921e-23
-1.936249282e-23
-8.223307783e-24
-1.855547065e-23
-4.12200045e-24
-1.802322001e-23
-1.775871302e-23
-4.027802968e-09
-5.21916652e-10
-3.700297002e-09
-1.286936998e-09
-3.196472591e-09
-1.997214015e-09
-2.536346826e-09
-2.616966647e-09
-1.748839172e-09
-3.114256394e-09
-8.736060236e-10
-3.4534982e-09
-2.824429344e-11
-3.365044057e-09
3.157738827e-17
-1.162005006e-10
-9.750869264e-22
-7.739205217e-25
-9.644940255e-22
-4.373212942e-23
-9.440249126e-22
-8.511236608e-23
-9.146227274e-22
-1.231248952e-22
-8.775790194e-22
-1.564940409e-22
-8.343993358e-22
-1.843395382e-22
-7.866707115e-22
-2.061997234e-22
-7.359470315e-22
-2.220030725e-22
-6.836613721e-22
-2.320044044e-22
-6.310681657e-22
-2.367030991e-22
-5.792131592e-22
-2.367581759e-22
-5.289262071e-22
-2.329108534e-22
-4.808307894e-22
-2.259207236e-22
-4.353642961e-22
-2.165178647e-22
-3.928040183e-22
-2.053704911e-22
-3.532949935e-22
-1.930661112e-22
-3.168770494e-22
-1.801034381e-22
-2.835094256e-22
-1.668921971e-22
-2.530921487e-22
-1.537582521e-22
-2.254838974e-22
-1.409519261e-22
-2.005164635e-22
-1.286578915e-22
-1.780061179e-22
-1.170054671e-22
-1.577622929e-22
-1.06078552e-22
-1.395940162e-22
-9.592472982e-23
-1.233145134e-22
-8.656330672e-23
-1.087443543e-22
-7.799220043e-23
-9.571346319e-23
-7.019370278e-23
-8.406226506e-23
-6.313919873e-23
-7.364218204e-23
-5.679295752e-23
-6.431565643e-23
-5.111512356e-23
-5.595583427e-23
-4.606403404e-23
-4.844601418e-23
-4.159798207e-23
-4.167893989e-23
-3.767653137e-23
-3.555599479e-23
-3.426147518e-23
-2.99863413e-23
-3.131751728e-23
-2.488603525e-23
-2.881273986e-23
-2.017713611e-23
-2.671891029e-23
-1.578682466e-23
-2.501166702e-23
-1.16465271e-23
-2.36706147e-23
-7.691022056e-24
-2.26793533e-23
-3.857476845e-24
-2.202547534e-23
-2.170060655e-23
-4.788404963e-09
-6.81458891e-10
-4.399687354e-09
-1.675654627e-09
-3.80420423e-09
-2.592697178e-09
-3.020979214e-09
-3.400191721e-09
-2.08148049e-09
-4.053755192e-09
-1.034098951e-09
-4.500879826e-09
-3.3039928e-11
-4.366103177e-09
3.785220835e-17
-1.492405515e-10
-1.018239528e-21
-1.090091094e-24
-1.005866423e-21
-5.611148023e-23
-9.820310918e-22
-1.089609725e-22
-9.479874904e-22
-1.571888713e-22
-9.054222169e-22
-1.990864972e-22
-8.562591629e-22
-2.335364833e-22
-8.024753272e-22
-2.600240868e-22
-7.459508478e-22
-2.785746384e-22
-6.883633463e-22
-2.896454619e-22
-6.311269316e-22
-2.939994385e-22
-5.753696178e-22
-2.925816714e-22
-5.219397118e-22
-2.864130752e-22
-4.714312574e-22
-2.765074951e-22
-4.242198477e-22
-2.638134503e-22
-3.805021217e-22
-2.491781e-22
-3.403343608e-22
-2.333293021e-22
-3.036674313e-22
-2.168711766e-22
-2.703767274e-22
-2.00288914e-22
-2.402867426e-22
-1.83959272e-22
-2.13190507e-22
-1.681640311e-22
-1.888644572e-22
-1.531044518e-22
-1.6707944e-22
-1.389154381e-22
-1.47608567e-22
-1.256786196e-22
-1.302325829e-22
-1.134339439e-22
-1.147433191e-22
-1.021896265e-22
-1.009457142e-22
-9.193047579e-23
-8.865878131e-23
-8.26247068e-23
-7.771582545e-23
-7.422941066e-23
-6.796414066e-23
-6.669486629e-23
-5.926435927e-23
-5.996787871e-23
-5.148958097e-23
-5.399431697e-23
-4.452437326e-23
-4.872100581e-23
-3.826370796e-23
-4.409710434e-23
-3.261187797e-23
-4.007508458e-23
-2.748142331e-23
-3.661140311e-23
-2.279208438e-23
-3.366694179e-23
-1.846979127e-23
-3.120727835e-23
-1.444569066e-23
-2.920283467e-23
-1.06552039e-23
-2.762894069e-23
-7.037102353e-24
-2.646584614e-23
-3.53258741e-24
-2.569871326e-23
-2.531762733e-23
-5.764943171e-09
-8.715385773e-10
-5.302488313e-09
-2.138109511e-09
-4.59458436e-09
-3.300601178e-09
-3.654806945e-09
-4.339969202e-09
-2.515480591e-09
-5.19308163e-09
-1.239141e-09
-5.777219516e-09
-4.052240531e-11
-5.564721884e-09
3.665958596e-17
-1.897630891e-10
-1.073510615e-21
-1.438720465e-24
-1.058705128e-21
-7.092321693e-23
-1.030250485e-21
-1.374288957e-22
-9.898795525e-22
-1.975801873e-22
-9.398696381e-22
-2.491236057e-22
-8.827468896e-22
-2.906931366e-22
-8.210281526e-22
-3.217833674e-22
-7.570254668e-22
-3.426244285e-22
-6.92722026e-22
-3.540024782e-22
-6.297142459e-22
-3.570671647e-22
-5.692060685e-22
-3.531560537e-22
-5.120388539e-22
-3.436526304e-22
-4.587414306e-22
-3.29883262e-22
-4.095881218e-22
-3.130509629e-22
-3.646563322e-22
-2.94199802e-22
-3.238786516e-22
-2.742024433e-22
-2.870870451e-22
-2.537636241e-22
-2.54048489e-22
-2.33433516e-22
-2.244925042e-22
-2.136263259e-22
-1.981315999e-22
-1.946408398e-22
-1.746758503e-22
-1.766807478e-22
-1.538428207e-22
-1.598734581e-22
-1.353639324e-22
-1.442867399e-22
-1.1898819e-22
-1.29942954e-22
-1.044840103e-22
-1.168309005e-22
-9.163973168e-23
-1.049154638e-22
-8.026323767e-23
-9.414531116e-23
-7.018101626e-23
-8.445892768e-23
-6.123688358e-23
-7.578926269e-23
-5.329053278e-23
-6.806724312e-23
-4.621601667e-23
-6.122437759e-23
-3.990023514e-23
-5.519464319e-23
-3.42414714e-23
-4.991581543e-23
-2.914800171e-23
-4.533037306e-23
-2.453679058e-23
-4.138608441e-23
-2.033227365e-23
-3.803636018e-23
-1.646522475e-23
-3.524044001e-23
-1.287169832e-23
-3.296346517e-23
-9.492035447e-24
-3.117647894e-23
-6.269920082e-24
-2.985638815e-23
-3.151476807e-24
-2.898591427e-23
-2.855355666e-23
-6.990948774e-09
-1.094329407e-09
-6.446871546e-09
-2.682186768e-09
-5.60902239e-09
-4.138450382e-09
-4.475726051e-09
-5.473265609e-09
-3.074993962e-09
-6.593813803e-09
-1.494235739e-09
-7.357977838e-09
-5.484575629e-11
-7.004111977e-09
2.249719508e-17
-2.446089577e-10
-1.143313605e-21
-1.531072331e-24
-1.125195882e-21
-8.904719206e-23
-1.090390558e-21
-1.722475059e-22
-1.041416168e-21
-2.465749691e-22
-9.814366489e-22
-3.0913033e-22
-9.138382616e-22
-3.583254423e-22
-8.418731231e-22
-3.937890654e-22
-7.684092364e-22
-4.161354375e-22
-6.957933691e-22
-4.266719412e-22
-6.258100211e-22
-4.271104807e-22
-5.597092481e-22
-4.193230552e-22
-4.98275475e-22
-4.051587695e-22
-4.419143301e-22
-3.863227776e-22
-3.907413064e-22
-3.643082192e-22
-3.446624831e-22
-3.403685678e-22
-3.034425725e-22
-3.155178462e-22
-2.667590002e-22
-2.905480704e-22
-2.342427873e-22
-2.66055809e-22
-2.05508033e-22
-2.424721846e-22
-1.801721427e-22
-2.200926708e-22
-1.578688985e-22
-1.991045756e-22
-1.382562141e-22
-1.796111709e-22
-1.21020091e-22
-1.616521339e-22
-1.058759618e-22
-1.452203905e-22
-9.256831811e-23
-1.302756788e-22
-8.086927287e-23
-1.16755259e-22
-7.057652041e-23
-1.045822151e-22
-6.151100739e-23
-9.367177778e-23
-5.351452301e-23
-8.393605253e-23
-4.644733852e-23
-7.528748313e-23
-4.018597244e-23
-6.764133018e-23
-3.462112097e-23
-6.091739252e-23
-2.965576895e-23
-5.504115669e-23
-2.520348107e-23
-4.994452143e-23
-2.118686338e-23
-4.556621363e-23
-1.75361799e-23
-4.185198609e-23
-1.418810571e-23
-3.875466739e-23
-1.108459709e-23
-3.623411769e-23
-8.171858605e-24
-3.425713201e-23
-5.399388922e-24
-3.27973231e-23
-2.719090551e-24
-3.183500855e-23
-3.135711952e-23
-8.50221961e-09
-1.345331397e-09
-7.880920879e-09
-3.303485527e-09
-6.90616671e-09
-5.113204595e-09
-5.54057633e-09
-6.838856048e-09
-3.794712743e-09
-8.33967746e-09
-1.804665599e-09
-9.348025061e-09
-8.824480484e-11
-8.720532855e-09
-3.659182332e-18
-3.328538184e-10
-1.23125149e-21
-1.39682939e-24
-1.208376204e-21
-1.119287332e-22
-1.164703589e-21
-2.159334116e-22
-1.103963618e-21
-3.073353381e-22
-1.030629906e-21
-3.824912573e-22
-9.493049354e-22
-4.396843447e-22
-8.642259974e-22
-4.789085785e-22
-7.789542579e-22
-5.01454317e-22
-6.962412253e-22
-5.09438589e-22
-6.180318e-22
-5.053798956e-22
-5.455534514e-22
-4.918676556e-22
-4.794469175e-22
-4.713376944e-22
-4.199060135e-22
-4.459420789e-22
-3.668067049e-22
-4.174917887e-22
-3.198157061e-22
-3.87449539e-22
-2.784757682e-22
-3.569533077e-22
-2.422688864e-22
-3.268558587e-22
-2.106606349e-22
-2.977701746e-22
-1.831294526e-22
-2.701145062e-22
-1.591845624e-22
-2.441535378e-22
-1.383756918e-22
-2.200340669e-22
-1.202971423e-22
-1.978147868e-22
-1.045881473e-22
-1.774904386e-22
-9.093093802e-23
-1.590109466e-22
-7.904751549e-23
-1.422962761e-22
-6.869580692e-23
-1.272477584e-22
-5.966564553e-23
-1.137565691e-22
-5.177484622e-23
-1.017099558e-22
-4.486553169e-23
-9.099571443e-23
-3.880078623e-23
-8.150532626e-23
-3.346166376e-23
-7.31360814e-23
-2.874454603e-23
-6.57924504e-23
-2.455882858e-23
-5.938690561e-23
-2.082490313e-23
-5.384034945e-23
-1.747240095e-23
-4.908226919e-23
-1.443866132e-23
-4.505070964e-23
-1.166739066e-23
-4.169213233e-23
-9.107480001e-24
-3.896121288e-23
-6.711951671e-24
-3.682061508e-23
-4.437009283e-24
-3.524077045e-23
-2.241169019e-24
-3.419968404e-23
-3.368278088e-23
-1.033213641e-08
-1.605997874e-09
-9.665263802e-09
-3.970358157e-09
-8.572392278e-09
-6.20607615e-09
-6.937037231e-09
-8.474211132e-09
-4.722067004e-09
-1.055464773e-08
-2.176619427e-09
-1.189347268e-08
-1.727459417e-10
-1.072440637e-08
-2.756584024e-17
-5.055997397e-10
-1.342412873e-21
-2.268511455e-24
-1.312355021e-21
-1.419928425e-22
-1.256087383e-21
-2.722143436e-22
-1.179110984e-21
-3.843321419e-22
-1.087822953e-21
-4.73806512e-22
-9.885355818e-22
-5.390056589e-22
-8.867822661e-22
-5.807024839e-22
-7.869510617e-22
-6.013326784e-22
-6.921954197e-22
-6.042478654e-22
-6.045316857e-22
-5.931036402e-22
-5.250342049e-22
-5.714314109e-22
-4.540603197e-22
-5.423839952e-22
-3.914630075e-22
-5.086178145e-22
-3.367701229e-22
-4.722689619e-22
-2.893237225e-22
-4.349859409e-22
-2.483813728e-22
-3.979912117e-22
-2.131852862e-22
-3.621528838e-22
-1.830062855e-22
-3.280553226e-22
-1.571692159e-22
-2.960627497e-22
-1.350653845e-22
-2.663733815e-22
-1.16156386e-22
-2.390637227e-22
-9.997254514e-23
-2.141237317e-22
-8.610825715e-23
-1.914840746e-22
-7.421577641e-23
-1.710368133e-22
-6.399845603e-23
-1.52650811e-22
-5.520405634e-23
-1.361829892e-22
-4.761847352e-23
-1.214863855e-22
-4.106006455e-23
-1.084157847e-22
-3.537463211e-23
-9.683153587e-23
-3.04310657e-23
-8.660203218e-23
-2.611759692e-23
-7.760522097e-23
-2.233860738e-23
-6.972942218e-23
-1.90119213e-23
-6.287366524e-23
-1.606651436e-23
-5.694770092e-23
-1.344057479e-23
-5.187180392e-23
-1.10798583e-23
-4.757645158e-23
-8.936285279e-24
-4.400194085e-23
-6.96673496e-24
-4.109798857e-23
-5.131997503e-24
-3.882334775e-23
-3.395850286e-24
-3.714546274e-23
-1.724229655e-24
-3.604017969e-23
-3.549152287e-23
-1.250302886e-08
-1.831230351e-09
-1.187667679e-08
-4.596710242e-09
-1.073668272e-08
-7.346070228e-09
-8.79341711e-09
-1.041747676e-08
-5.917941063e-09
-1.343012379e-08
-2.648319291e-09
-1.516309445e-08
-3.88584946e-10
-1.298414069e-08
-2.48011247e-17
-8.941846054e-10
-1.483270921e-21
-5.132881606e-24
-1.442541817e-21
-1.827282042e-22
-1.368182582e-21
-3.465868766e-22
-1.268577215e-21
-4.839579194e-22
-1.153025928e-21
-5.893850296e-22
-1.030244515e-21
-6.618210257e-22
-9.074291331e-22
-7.035584691e-22
-7.898844401e-22
-7.189245446e-22
-6.810687723e-22
-7.131171858e-22
-5.828751526e-22
-6.913572906e-22
-4.960000163e-22
-6.583728437e-22
-4.203047766e-22
-6.181516742e-22
-3.551223654e-22
-5.738786746e-22
-2.994931912e-22
-5.279824514e-22
-2.523333181e-22
-4.82235844e-22
-2.125459565e-22
-4.378741574e-22
-1.790895402e-22
-3.957102698e-22
-1.510147008e-22
-3.562363418e-22
-1.274802298e-22
-3.197084282e-22
-1.077556764e-22
-2.86213982e-22
-9.121605031e-23
-2.557240419e-22
-7.733235106e-23
-2.281325716e-22
-6.566034317e-23
-2.032854682e-22
-5.582906186e-23
-1.81001519e-22
-4.752990257e-23
-1.610872239e-22
-4.050672961e-23
-1.43347033e-22
-3.454717739e-23
-1.275902114e-22
-2.94751604e-23
-1.136352623e-22
-2.514452067e-23
-1.013126055e-22
-2.143369838e-23
-9.046603521e-23
-1.824129533e-23
-8.095333621e-23
-1.548240103e-23
-7.264634022e-23
-1.308555997e-23
-6.543062138e-23
-1.099027116e-23
-5.920497574e-23
-9.144925148e-24
-5.388078644e-23
-7.505097166e-24
-4.938134617e-23
-6.0321276e-24
-4.56411868e-23
-4.691932014e-24
-4.260545015e-23
-3.453992205e-24
-4.022932307e-23
-2.290487683e-24
-3.847755233e-23
-1.175533192e-24
-3.732404892e-23
-3.675158809e-23
-1.501005784e-08
-1.931016087e-09
-1.4605797e-08
-5.000971082e-09
-1.357943047e-08
-8.372436754e-09
-1.131906497e-08
-1.267784226e-08
-7.628808566e-09
-1.712038017e-08
-3.565366136e-09
-1.922653684e-08
-9.647059651e-10
-1.558480079e-08
9.31736242e-18
-1.858890467e-09
-1.663327647e-21
-1.203899698e-23
-1.606353883e-21
-2.397082271e-22
-1.505526452e-21
-4.4742761e-22
-1.37399908e-21
-6.155057084e-22
-1.225473304e-21
-7.379380435e-22
-1.072003474e-21
-8.153248189e-22
-9.228210685e-22
-8.527814899e-22
-7.841030645e-22
-8.576897366e-22
-6.593324133e-22
-8.37941507e-22
-5.499105615e-22
-8.008391924e-22
-4.557947073e-22
-7.525550154e-22
-3.760438732e-22
-6.979749703e-22
-3.092349734e-22
-6.407660474e-22
-2.537527382e-22
-5.835490279e-22
-2.07975682e-22
-5.281029575e-22
-1.70384522e-22
-4.755609302e-22
-1.396168892e-22
-4.265789024e-22
-1.144872242e-22
-3.814722179e-22
-9.398564038e-23
-3.403212522e-22
-7.726520918e-23
-3.030504939e-22
-6.362381317e-23
-2.694861657e-22
-5.248434568e-23
-2.393972154e-22
-4.337543072e-23
-2.125238052e-22
-3.591379326e-23
-1.88596618e-22
-2.978876196e-23
-1.673495468e-22
-2.474900435e-23
-1.485276999e-22
-2.059138383e-23
-1.318921447e-22
-1.715172585e-23
-1.172224203e-22
-1.429724218e-23
-1.04317559e-22
-1.192036115e-23
-9.299613714e-23
-9.933729534e-24
-8.309572039e-23
-8.266178223e-24
-7.447195578e-23
-6.859473038e-24
-6.699748221e-23
-5.665699861e-24
-6.056077548e-23
-4.645158858e-24
-5.506500441e-23
-3.764664614e-24
-5.042694733e-23
-2.996167779e-24
-4.657600015e-23
-2.315629381e-24
-4.345329442e-23
-1.702091539e-24
-4.101093607e-23
-1.136898496e-24
-3.921136982e-23
-6.03029673e-25
-3.80268716e-23
-3.743916892e-23
-1.778824101e-08
-1.751977398e-09
-1.793666379e-08
-4.852548294e-09
-1.741068033e-08
-8.89842021e-09
-1.525419197e-08
-1.483433061e-08
-1.123991821e-08
-2.113465392e-08
-6.43480313e-09
-2.403165187e-08
-2.494810775e-09
-1.952479306e-08
2.551940863e-17
-4.353701131e-09
-1.897203724e-21
-3.094845641e-23
-1.81401491e-21
-3.229032995e-22
-1.673574644e-21
-5.878811831e-22
-1.496434348e-21
-7.926664312e-22
-1.302885491e-21
-9.315141457e-22
-1.109496854e-21
-1.008747427e-21
-9.277685828e-22
-1.034550387e-21
-7.643911822e-22
-1.021114339e-21
-6.222608291e-22
-9.801255461e-22
-5.016507162e-22
-9.215093734e-22
-4.012329269e-22
-8.530391421e-22
-3.188480062e-22
-7.804323747e-22
-2.520268182e-22
-7.076657317e-22
-1.983123149e-22
-6.37347897e-22
-1.55436925e-22
-5.710684308e-22
-1.214040674e-22
-5.096894281e-22
-9.451060706e-23
-4.535733913e-22
-7.333588409e-23
-4.027531819e-22
-5.671401797e-23
-3.570543895e-22
-4.369973121e-23
-3.161808937e-22
-3.353356948e-23
-2.797730884e-22
-2.560959481e-23
-2.474464005e-22
-1.944691863e-23
-2.188159385e-22
-1.466545287e-23
-1.935115811e-22
-1.096572541e-23
-1.711866022e-22
-8.112351378e-24
-1.515220203e-22
-5.9206587e-24
-1.342281877e-22
-4.245961118e-24
-1.19044656e-22
-2.975011415e-24
-1.057390169e-22
-2.019225554e-24
-9.410518261e-23
-1.309330687e-24
-8.396140675e-23
-7.911492709e-25
-7.514824054e-23
-4.222841004e-25
-6.752654218e-23
-1.695143535e-25
-6.097561096e-23
-6.750180879e-27
-5.539148468e-23
8.657573051e-26
-5.06854192e-23
1.267764595e-25
-4.678255627e-23
1.269160034e-25
-4.362077853e-23
9.76127738e-26
-4.114974645e-23
4.769071581e-26
-3.933011044e-23
-1.528175818e-26
-3.813289098e-23
-3.753902015e-23
-2.063680064e-08
-1.078881562e-09
-2.192283876e-08
-3.566510175e-09
-2.305679236e-08
-7.764466622e-09
-2.301638047e-08
-1.487474251e-08
-2.048666921e-08
-2.366436515e-08
-1.432313647e-08
-3.019518454e-08
-5.975014072e-09
-2.787291536e-08
-2.885333032e-17
-1.032871513e-08
-2.205886789e-21
-9.652141129e-23
-2.078928305e-21
-4.498680463e-22
-1.878331326e-21
-7.884914721e-22
-1.635303482e-21
-1.03571471e-21
-1.38016938e-21
-1.186675503e-21
-1.135360451e-21
-1.253590337e-21
-9.143906912e-22
-1.255560784e-21
-7.234518014e-22
-1.212100443e-21
-5.636833663e-22
-1.139947682e-21
-4.332089641e-22
-1.05204386e-21
-3.286459717e-22
-9.576684905e-22
-2.46094363e-22
-8.630564872e-22
-1.817169069e-22
-7.721217058e-22
-1.320371478e-22
-6.871120452e-22
-9.405973211e-23
-6.091359544e-22
-6.528819769e-23
-5.385566286e-22
-4.368953159e-23
-4.752731131e-22
-2.763561873e-23
-4.189133642e-22
-1.583873254e-23
-3.689625763e-22
-7.290011634e-24
-3.24845758e-22
-1.204965343e-24
-2.859789271e-22
3.022709951e-24
-2.517993185e-22
5.859165212e-24
-2.21781884e-22
7.661114384e-24
-1.954470614e-22
8.700298768e-24
-1.723631491e-22
9.182778152e-24
-1.521454812e-22
9.264030383e-24
-1.34453826e-22
9.060704238e-24
-1.189889041e-22
8.659727987e-24
-1.054885854e-22
8.125344352e-24
-9.372409538e-23
7.504528446e-24
-8.349641938e-23
6.831150173e-24
-7.46330028e-23
6.129164847e-24
-6.698478897e-23
5.415053875e-24
-6.042360308e-23
4.699688101e-24
-5.483987234e-23
3.989748003e-24
-5.01406623e-23
3.288804887e-24
-4.624800568e-23
2.598144047e-24
-4.309749923e-23
1.917393102e-24
-4.063714591e-23
1.245005141e-24
-3.882642174e-23
5.78636218e-25
-3.763555026e-23
-3.704497064e-23
-2.305317581e-08
3.125231255e-10
-2.64525926e-08
-1.67093392e-10
-3.182464361e-08
-2.392415632e-09
-3.78801456e-08
-8.81924052e-09
-3.906489015e-08
-2.247962057e-08
-2.966413932e-08
-3.959593527e-08
-1.25583403e-08
-4.497871429e-08
-1.399772767e-16
-2.288705551e-08
-2.602144803e-21
-1.83245589e-22
-2.417422002e-21
-6.345971159e-22
-2.125530226e-21
-1.080396558e-21
-1.786324845e-21
-1.374940531e-21
-1.447179152e-21
-1.525848461e-21
-1.137427976e-21
-1.563375505e-21
-8.710136695e-22
-1.522015738e-21
-6.513634849e-22
-1.431797854e-21
-4.758257689e-22
-1.315539112e-21
-3.388646611e-22
-1.189065068e-21
-2.340534759e-22
-1.062546049e-21
-1.551707898e-22
-9.420116958e-22
-9.671277697e-23
-8.306582567e-22
-5.406287353e-23
-7.298463592e-22
-2.347990897e-23
-6.398090497e-22
-2.002833211e-24
-5.601293945e-22
1.267277851e-23
-4.900498057e-22
2.231803091e-23
-4.286649123e-22
2.828099289e-23
-3.750368663e-22
3.157962115e-23
-3.282605581e-22
3.297725758e-23
-2.874973852e-22
3.30425324e-23
-2.519898662e-22
3.219613746e-23
-2.210650102e-22
3.074694231e-23
-1.941314291e-22
2.891966092e-23
-1.706732624e-22
2.687592378e-23
-1.502427584e-22
2.47302577e-23
-1.324525792e-22
2.256216222e-23
-1.169684166e-22
2.04252091e-23
-1.035022111e-22
1.835387969e-23
-9.180609682e-23
1.636868733e-23
-8.166709024e-23
1.448000233e-23
-7.290249322e-23
1.269089642e-23
-6.535595017e-23
1.099924744e-23
-5.889409223e-23
9.39928642e-24
-5.34036998e-23
7.882725362e-24
-4.878931945e-23
6.43957028e-24
-4.497127803e-23
5.05869918e-24
-4.188404445e-23
3.728265567e-24
-3.947489731e-23
2.435974038e-24
-3.770286388e-23
1.169264157e-24
-3.653790277e-23
-3.596030909e-23
-2.403141214e-08
2.542569902e-09
-3.060343222e-08
6.404926669e-09
-4.278262354e-08
9.786775693e-09
-5.780947088e-08
6.207606839e-09
-6.425279669e-08
-1.603629477e-08
-5.181305941e-08
-5.203567248e-08
-2.386336754e-08
-7.292840622e-08
-2.10735021e-16
-4.675042329e-08
-3.153839008e-21
-2.918464992e-22
-2.863094125e-21
-9.253482725e-22
-2.420111406e-21
-1.523392592e-21
-1.937382878e-21
-1.857689498e-21
-1.484877702e-21
-1.978380909e-21
-1.096217654e-21
-1.952069554e-21
-7.809094075e-22
-1.837364642e-21
-5.351835829e-22
-1.677570916e-21
-3.494024103e-22
-1.501374012e-21
-2.123757027e-22
-1.32615189e-21
-1.135350667e-22
-1.161453073e-21
-4.382414591e-23
-1.011795156e-21
4.09794663e-24
-8.786589057e-22
3.597650338e-23
-7.618093461e-22
5.620351331e-23
-6.601262112e-22
6.808126064e-23
-5.721028539e-22
7.406234012e-23
-4.961319891e-22
7.595058299e-23
-4.30659475e-22
7.506147661e-23
-3.74259113e-22
7.234656585e-23
-3.25661845e-22
6.848812793e-23
-2.837597957e-22
6.397033343e-23
-2.475973721e-22
5.91322875e-23
-2.163565136e-22
5.420733881e-23
-1.893400722e-22
4.935209392e-23
-1.659554419e-22
4.466776784e-23
-1.456994768e-22
4.021585496e-23
-1.281451163e-22
3.602960207e-23
-1.129298027e-22
3.21223841e-23
-9.974560338e-23
2.849379614e-23
-8.833087139e-23
2.513406303e-23
-7.846325227e-23
2.202720958e-23
-6.995384727e-23
1.915331821e-23
-6.264235811e-23
1.649011524e-23
-5.639305967e-23
1.401406356e-23
-5.10914689e-23
1.170109314e-23
-4.664159951e-23
9.527066419e-24
-4.296371093e-23
7.468050367e-24
-3.999247678e-23
5.500448614e-24
-3.767551249e-23
3.601033279e-24
-3.597221395e-23
1.746906467e-24
-3.485286988e-23
-3.429801955e-23
-2.181070789e-08
5.235257424e-09
-3.080922347e-08
1.540344224e-08
-4.802060392e-08
2.699815619e-08
-6.96426026e-08
2.782960559e-08
-8.313020848e-08
-2.548688825e-09
-7.473006012e-08
-6.043582091e-08
-4.046383436e-08
-1.071946321e-07
-1.213493282e-16
-8.721425787e-08
-4.001793911e-21
-6.16141738e-22
-3.46133588e-21
-1.465812576e-21
-2.754657212e-21
-2.230084585e-21
-2.058405229e-21
-2.55396192e-21
-1.458857972e-21
-2.577955442e-21
-9.8172839e-22
-2.429233143e-21
-6.212586118e-22
-2.197875086e-21
-3.590733091e-22
-1.939803465e-21
-1.742279141e-22
-1.686273144e-21
-4.769943724e-23
-1.452740494e-21
3.611543984e-23
-1.245334352e-21
8.93132509e-23
-1.065065521e-21
1.209530705e-22
-9.103772978e-22
1.376671326e-22
-7.786078557e-22
1.442348698e-22
-6.667841184e-22
1.440598622e-22
-5.720235778e-22
1.395419553e-22
-4.917152066e-22
1.323572642e-22
-4.235811251e-22
1.236642615e-22
-3.656774857e-22
1.14253374e-22
-3.163671784e-22
1.046546256e-22
-2.742819197e-22
9.521466382e-23
-2.382827353e-22
8.615168031e-23
-2.074231049e-22
7.759447495e-23
-1.809164845e-22
6.96101859e-23
-1.581086036e-22
6.222393399e-23
-1.384542963e-22
5.543270217e-23
-1.214983618e-22
4.921510447e-23
-1.068598718e-22
4.353822349e-23
-9.421936078e-23
3.836235603e-23
-8.330839491e-23
3.364426636e-23
-7.390108642e-23
2.933937468e-23
-6.580719194e-23
2.54031868e-23
-5.886649853e-23
2.179218404e-23
-5.294425638e-23
1.846433008e-23
-4.792746479e-23
1.537930706e-23
-4.372185602e-23
1.249856145e-23
-4.024945392e-23
9.785216877e-24
-3.744660949e-23
7.203895124e-24
-3.526243642e-23
4.720474259e-24
-3.365758707e-23
2.301804788e-24
-3.260332272e-23
-3.208084419e-23
-1.383837318e-08
6.939654107e-09
-2.001356337e-08
2.157863244e-08
-3.319009957e-08
4.017469244e-08
-5.393545913e-08
4.857496529e-08
-7.482080445e-08
1.833665648e-08
-8.208837563e-08
-5.316824981e-08
-5.677870628e-08
-1.325043014e-07
-4.610569738e-17
-1.439929642e-07
-5.269147571e-21
-1.301458341e-21
-4.226402559e-21
-2.508563855e-21
-3.079233102e-21
-3.377267373e-21
-2.083031361e-21
-3.550184105e-21
-1.310584304e-21
-3.35042978e-21
-7.506490582e-22
-2.989202403e-21
-3.633428725e-22
-2.585221945e-21
-1.056201352e-22
-2.197573457e-21
5.927409924e-23
-1.851221126e-21
1.597015981e-22
-1.55322813e-21
2.163919812e-22
-1.30209115e-21
2.440147063e-22
-1.092760814e-21
2.527373057e-22
-9.191784838e-22
2.495052184e-22
-7.754602309e-22
2.390084103e-22
-6.563774963e-22
2.243795763e-22
-5.574904922e-22
2.07685717e-22
-4.751224894e-22
1.902690567e-22
-4.062708246e-22
1.729813834e-22
-3.485012071e-22
1.563443053e-22
-2.998463413e-22
1.406585242e-22
-2.587170317e-22
1.260782117e-22
-2.238277693e-22
1.126615593e-22