/*--------------------------------*- C++ -*----------------------------------*\
  =========                 |
  \\      /  F ield         | OpenFOAM: The Open Source CFD Toolbox
   \\    /   O peration     | Website:  https://openfoam.org
    \\  /    A nd           | Version:  6
     \\/     M anipulation  |
\*---------------------------------------------------------------------------*/
FoamFile
{
    version     2.0;
    format      ascii;
    class       volScalarField;
    location    "0.02";
    object      pVap;
}
// * * * * * * * * * * * * * * * * * * * * * * * * * * * * * * * * * * * * * //

dimensions      [1 -1 -2 0 0 0 0];

internalField   nonuniform List<scalar> 
2500
(
55292.59134
55292.59134
55292.59134
55292.59134
55292.59133
55292.59131
55292.59128
55292.59126
1.074252526
1.074252494
1.07425249
1.074252489
1.074252489
1.074252489
1.074252489
1.074252489
1.074252489
1.074252489
1.074252489
1.074252489
1.074252489
1.074252489
1.074252489
1.074252489
1.074252489
1.074252489
1.074252489
1.074252489
1.074252489
1.074252489
1.074252489
1.074252489
1.074252489
1.074252489
1.074252489
1.074252489
1.074252489
1.074252489
1.074252489
1.074252489
1.074252489
1.074252489
1.074252489
1.074252489
1.074252489
1.074252489
1.074252489
1.074252489
1.074252489
1.074252489
55292.59156
55292.59156
55292.59156
55292.59154
55292.59151
55292.59145
55292.59136
55292.59126
1.074252627
1.07425251
1.074252492
1.074252489
1.074252489
1.074252489
1.074252489
1.074252489
1.074252489
1.074252489
1.074252489
1.074252489
1.074252489
1.074252489
1.074252489
1.074252489
1.074252489
1.074252489
1.074252489
1.074252489
1.074252489
1.074252489
1.074252489
1.074252489
1.074252489
1.074252489
1.074252489
1.074252489
1.074252489
1.074252489
1.074252489
1.074252489
1.074252489
1.074252489
1.074252489
1.074252489
1.074252489
1.074252489
1.074252489
1.074252489
1.074252489
1.074252489
55292.59194
55292.59194
55292.59194
55292.59191
55292.59183
55292.59169
55292.5915
55292.59126
1.074252834
1.074252549
1.0742525
1.074252491
1.074252489
1.074252489
1.074252489
1.074252489
1.074252489
1.074252489
1.074252489
1.074252489
1.074252489
1.074252489
1.074252489
1.074252489
1.074252489
1.074252489
1.074252489
1.074252489
1.074252489
1.074252489
1.074252489
1.074252489
1.074252489
1.074252489
1.074252489
1.074252489
1.074252489
1.074252489
1.074252489
1.074252489
1.074252489
1.074252489
1.074252489
1.074252489
1.074252489
1.074252489
1.074252489
1.074252489
1.074252489
1.074252489
55292.59266
55292.59268
55292.59269
55292.59264
55292.59249
55292.5922
55292.59178
55292.59127
1.074253324
1.074252661
1.07425253
1.074252499
1.074252491
1.074252489
1.074252489
1.074252489
1.074252489
1.074252489
1.074252489
1.074252489
1.074252489
1.074252489
1.074252489
1.074252489
1.074252489
1.074252489
1.074252489
1.074252489
1.074252489
1.074252489
1.074252489
1.074252489
1.074252489
1.074252489
1.074252489
1.074252489
1.074252489
1.074252489
1.074252489
1.074252489
1.074252489
1.074252489
1.074252489
1.074252489
1.074252489
1.074252489
1.074252489
1.074252489
1.074252489
1.074252489
55292.59403
55292.59409
55292.59414
55292.59408
55292.5938
55292.59322
55292.59235
55292.5915
1.074254604
1.074253037
1.07425265
1.074252535
1.074252501
1.074252491
1.074252489
1.074252489
1.074252489
1.074252489
1.074252489
1.074252489
1.074252489
1.074252489
1.074252489
1.074252489
1.074252489
1.074252489
1.074252489
1.074252489
1.074252489
1.074252489
1.074252489
1.074252489
1.074252489
1.074252489
1.074252489
1.074252489
1.074252489
1.074252489
1.074252489
1.074252489
1.074252489
1.074252489
1.074252489
1.074252489
1.074252489
1.074252489
1.074252489
1.074252489
1.074252489
1.074252489
55292.59661
55292.59678
55292.59695
55292.59691
55292.59642
55292.5953
55292.59353
55292.59467
1.074258346
1.074254418
1.074253141
1.074252686
1.07425254
1.0742525
1.074252491
1.074252489
1.074252489
1.074252489
1.074252489
1.074252489
1.074252489
1.074252489
1.074252489
1.074252489
1.074252489
1.074252489
1.074252489
1.074252489
1.074252489
1.074252489
1.074252489
1.074252489
1.074252489
1.074252489
1.074252489
1.074252489
1.074252489
1.074252489
1.074252489
1.074252489
1.074252489
1.074252489
1.074252489
1.074252489
1.074252489
1.074252489
1.074252489
1.074252489
1.074252489
1.074252489
55292.60136
55292.60176
55292.60225
55292.60236
55292.60157
55292.59945
55292.59591
55292.60076
1.074270485
1.074259703
1.074255136
1.074253311
1.074252705
1.074252538
1.074252498
1.07425249
1.074252489
1.074252489
1.074252489
1.074252489
1.074252489
1.074252489
1.074252489
1.074252489
1.074252489
1.074252489
1.074252489
1.074252489
1.074252489
1.074252489
1.074252489
1.074252489
1.074252489
1.074252489
1.074252489
1.074252489
1.074252489
1.074252489
1.074252489
1.074252489
1.074252489
1.074252489
1.074252489
1.074252489
1.074252489
1.074252489
1.074252489
1.074252489
1.074252489
1.074252489
55292.60986
55292.61079
55292.61202
55292.61262
55292.61148
55292.60762
55292.6007
55292.60972
1.074312619
1.074279843
1.074262913
1.074255753
1.074253345
1.074252682
1.074252527
1.074252495
1.07425249
1.074252489
1.074252489
1.074252489
1.074252489
1.074252489
1.074252489
1.074252489
1.074252489
1.074252489
1.074252489
1.074252489
1.074252489
1.074252489
1.074252489
1.074252489
1.074252489
1.074252489
1.074252489
1.074252489
1.074252489
1.074252489
1.074252489
1.074252489
1.074252489
1.074252489
1.074252489
1.074252489
1.074252489
1.074252489
1.074252489
1.074252489
1.074252489
1.074252489
55292.62461
55292.62667
55292.62958
55292.63151
55292.63021
55292.62345
55292.6102
55292.61505
1.074461743
1.07435401
1.074291637
1.074264722
1.074255682
1.074253203
1.074252629
1.074252513
1.074252493
1.074252489
1.074252489
1.074252489
1.074252489
1.074252489
1.074252489
1.074252489
1.074252489
1.074252489
1.074252489
1.074252489
1.074252489
1.074252489
1.074252489
1.074252489
1.074252489
1.074252489
1.074252489
1.074252489
1.074252489
1.074252489
1.074252489
1.074252489
1.074252489
1.074252489
1.074252489
1.074252489
1.074252489
1.074252489
1.074252489
1.074252489
1.074252489
1.074252489
55292.64935
55292.65371
55292.66017
55292.66536
55292.6648
55292.65361
55292.62889
55292.60876
1.074979781
1.074613384
1.074391286
1.074295543
1.074263642
1.074254967
1.074252971
1.074252572
1.074252502
1.074252491
1.074252489
1.074252489
1.074252489
1.074252489
1.074252489
1.074252489
1.074252489
1.074252489
1.074252489
1.074252489
1.074252489
1.074252489
1.074252489
1.074252489
1.074252489
1.074252489
1.074252489
1.074252489
1.074252489
1.074252489
1.074252489
1.074252489
1.074252489
1.074252489
1.074252489
1.074252489
1.074252489
1.074252489
1.074252489
1.074252489
1.074252489
1.074252489
55292.68932
55292.69809
55292.71166
55292.72412
55292.72695
55292.70984
55292.66524
55292.60171
1.076703421
1.07546594
1.074714258
1.074394277
1.074288906
1.074260524
1.074254043
1.074252756
1.07425253
1.074252495
1.07425249
1.074252489
1.074252489
1.074252489
1.074252489
1.074252489
1.074252489
1.074252489
1.074252489
1.074252489
1.074252489
1.074252489
1.074252489
1.074252489
1.074252489
1.074252489
1.074252489
1.074252489
1.074252489
1.074252489
1.074252489
1.074252489
1.074252489
1.074252489
1.074252489
1.074252489
1.074252489
1.074252489
1.074252489
1.074252489
1.074252489
1.074252489
55292.75113
55292.76789
55292.79488
55292.82228
55292.83483
55292.81183
55292.73511
55292.60829
1.082120407
1.078083758
1.075688507
1.074688255
1.074363391
1.07427678
1.074257159
1.074253289
1.074252613
1.074252506
1.074252491
1.074252489
1.074252489
1.074252489
1.074252489
1.074252489
1.074252489
1.074252489
1.074252489
1.074252489
1.074252489
1.074252489
1.074252489
1.074252489
1.074252489
1.074252489
1.074252489
1.074252489
1.074252489
1.074252489
1.074252489
1.074252489
1.074252489
1.074252489
1.074252489
1.074252489
1.074252489
1.074252489
1.074252489
1.074252489
1.074252489
1.074252489
55292.84201
55292.87237
55292.92299
55292.97859
55293.01373
55292.99035
55292.86779
55292.63868
1.09810294
1.085568136
1.078416029
1.075499695
1.07456691
1.074320853
1.074265554
1.074254717
1.074252832
1.074252537
1.074252495
1.07425249
1.074252489
1.074252489
1.074252489
1.074252489
1.074252489
1.074252489
1.074252489
1.074252489
1.074252489
1.074252489
1.074252489
1.074252489
1.074252489
1.074252489
1.074252489
1.074252489
1.074252489
1.074252489
1.074252489
1.074252489
1.074252489
1.074252489
1.074252489
1.074252489
1.074252489
1.074252489
1.074252489
1.074252489
1.074252489
1.074252489
55292.96803
55293.01996
55293.10923
55293.21344
55293.29429
55293.28989
55293.11586
55292.74706
1.14246832
1.105490944
1.085490921
1.077571202
1.075081011
1.074431332
1.074286472
1.074258256
1.074253373
1.074252613
1.074252505
1.074252491
1.074252489
1.074252489
1.074252489
1.074252489
1.074252489
1.074252489
1.074252489
1.074252489
1.074252489
1.074252489
1.074252489
1.074252489
1.074252489
1.074252489
1.074252489
1.074252489
1.074252489
1.074252489
1.074252489
1.074252489
1.074252489
1.074252489
1.074252489
1.074252489
1.074252489
1.074252489
1.074252489
1.074252489
1.074252489
1.074252489
55293.13099
55293.21486
55293.36294
55293.54418
55293.70787
55293.76675
55293.56227
55293.45591
1.260073761
1.155121284
1.102493439
1.08245293
1.076278714
1.074686732
1.074334546
1.074266352
1.074254607
1.074252784
1.074252527
1.074252493
1.074252489
1.074252489
1.074252489
1.074252489
1.074252489
1.074252489
1.074252489
1.074252489
1.074252489
1.074252489
1.074252489
1.074252489
1.074252489
1.074252489
1.074252489
1.074252489
1.074252489
1.074252489
1.074252489
1.074252489
1.074252489
1.074252489
1.074252489
1.074252489
1.074252489
1.074252489
1.074252489
1.074252489
1.074252489
1.074252489
55293.32352
55293.45221
55293.6849
55293.97874
55294.2719
55294.46295
55294.2959
55294.40952
1.568584554
1.272413924
1.140453558
1.093058922
1.078845847
1.075229795
1.07443619
1.074283392
1.074257194
1.074253143
1.074252573
1.074252499
1.07425249
1.074252489
1.074252489
1.074252489
1.074252489
1.074252489
1.074252489
1.074252489
1.074252489
1.074252489
1.074252489
1.074252489
1.074252489
1.074252489
1.074252489
1.074252489
1.074252489
1.074252489
1.074252489
1.074252489
1.074252489
1.074252489
1.074252489
1.074252489
1.074252489
1.074252489
1.074252489
1.074252489
1.074252489
1.074252489
55293.52003
55293.69482
55294.02685
55294.47412
55294.94821
55295.34706
55295.3419
55294.64934
2.42053071
1.5421586
1.219709011
1.11429231
1.083895464
1.076288752
1.0746333
1.074316298
1.074262171
1.074253832
1.07425266
1.074252509
1.074252491
1.074252489
1.074252489
1.074252489
1.074252489
1.074252489
1.074252489
1.074252489
1.074252489
1.074252489
1.074252489
1.074252489
1.074252489
1.074252489
1.074252489
1.074252489
1.074252489
1.074252489
1.074252489
1.074252489
1.074252489
1.074252489
1.074252489
1.074252489
1.074252489
1.074252489
1.074252489
1.074252489
1.074252489
1.074252489
55293.69139
55293.89178
55294.29376
55294.88692
55295.60814
55296.28401
55296.61569
55295.70966
5.085470136
2.167751922
1.376107101
1.153478105
1.0929862
1.07817596
1.074982645
1.074374391
1.074270931
1.07425504
1.074252814
1.074252527
1.074252493
1.074252489
1.074252489
1.074252489
1.074252489
1.074252489
1.074252489
1.074252489
1.074252489
1.074252489
1.074252489
1.074252489
1.074252489
1.074252489
1.074252489
1.074252489
1.074252489
1.074252489
1.074252489
1.074252489
1.074252489
1.074252489
1.074252489
1.074252489
1.074252489
1.074252489
1.074252489
1.074252489
1.074252489
1.074252489
55293.83086
55294.02957
55294.44308
55295.09842
55296.01223
55297.06614
55297.94844
55297.65992
14.81896543
3.679392414
1.671300162
1.220165508
1.107914814
1.081236778
1.075546052
1.074467741
1.074284968
1.074256972
1.074253059
1.074252556
1.074252496
1.07425249
1.074252489
1.074252489
1.074252489
1.074252489
1.074252489
1.074252489
1.074252489
1.074252489
1.074252489
1.074252489
1.074252489
1.074252489
1.074252489
1.074252489
1.074252489
1.074252489
1.074252489
1.074252489
1.074252489
1.074252489
1.074252489
1.074252489
1.074252489
1.074252489
1.074252489
1.074252489
1.074252489
1.074252489
55293.96367
55294.15778
55294.5718
55295.23704
55296.20443
55297.52355
55299.14667
55299.97856
53.19382509
7.494859935
2.207431166
1.3246498
1.130169079
1.085729142
1.076368084
1.074603491
1.074305329
1.074259768
1.074253413
1.074252598
1.074252501
1.07425249
1.074252489
1.074252489
1.074252489
1.074252489
1.074252489
1.074252489
1.074252489
1.074252489
1.074252489
1.074252489
1.074252489
1.074252489
1.074252489
1.074252489
1.074252489
1.074252489
1.074252489
1.074252489
1.074252489
1.074252489
1.074252489
1.074252489
1.074252489
1.074252489
1.074252489
1.074252489
1.074252489
1.074252489
55294.09666
55294.29319
55294.72404
55295.43513
55296.50835
55298.0687
55300.12995
55302.25098
190.284938
17.05333874
3.134768638
1.474275704
1.160043155
1.091646412
1.077444119
1.074780647
1.074331844
1.074263402
1.074253873
1.074252652
1.074252507
1.074252491
1.074252489
1.074252489
1.074252489
1.074252489
1.074252489
1.074252489
1.074252489
1.074252489
1.074252489
1.074252489
1.074252489
1.074252489
1.074252489
1.074252489
1.074252489
1.074252489
1.074252489
1.074252489
1.074252489
1.074252489
1.074252489
1.074252489
1.074252489
1.074252489
1.074252489
1.074252489
1.074252489
1.074252489
55294.22874
55294.43792
55294.90992
55295.71442
55296.95933
55298.79135
55301.2647
55304.15704
563.7114416
38.57490698
4.608999748
1.666672447
1.195646103
1.098547508
1.07869105
1.074985383
1.074362433
1.074267589
1.074254402
1.074252714
1.074252513
1.074252491
1.074252489
1.074252489
1.074252489
1.074252489
1.074252489
1.074252489
1.074252489
1.074252489
1.074252489
1.074252489
1.074252489
1.074252489
1.074252489
1.074252489
1.074252489
1.074252489
1.074252489
1.074252489
1.074252489
1.074252489
1.074252489
1.074252489
1.074252489
1.074252489
1.074252489
1.074252489
1.074252489
1.074252489
55294.34968
55294.57777
55295.10426
55296.02386
55297.46515
55299.56359
55302.31757
55305.57002
1265.774733
77.36747991
6.629447936
1.881126339
1.232322397
1.105500023
1.079939559
1.075189902
1.074392946
1.074271761
1.074254928
1.074252775
1.07425252
1.074252492
1.074252489
1.074252489
1.074252489
1.074252489
1.074252489
1.074252489
1.074252489
1.074252489
1.074252489
1.074252489
1.074252489
1.074252489
1.074252489
1.074252489
1.074252489
1.074252489
1.074252489
1.074252489
1.074252489
1.074252489
1.074252489
1.074252489
1.074252489
1.074252489
1.074252489
1.074252489
1.074252489
1.074252489
55294.44373
55294.69
55295.26621
55296.28574
55297.88895
55300.19405
55303.13498
55306.48289
2130.856085
127.0981056
8.789652649
2.074424647
1.263156257
1.111230477
1.080963215
1.075357281
1.074417892
1.074275169
1.074255358
1.074252826
1.074252526
1.074252493
1.074252489
1.074252489
1.074252489
1.074252489
1.074252489
1.074252489
1.074252489
1.074252489
1.074252489
1.074252489
1.074252489
1.074252489
1.074252489
1.074252489
1.074252489
1.074252489
1.074252489
1.074252489
1.074252489
1.074252489
1.074252489
1.074252489
1.074252489
1.074252489
1.074252489
1.074252489
1.074252489
1.074252489
55294.49558
55294.75298
55295.35884
55296.43654
55298.13134
55300.55098
55303.61081
55306.93017
2742.211571
164.156782
10.24938698
2.191276353
1.28092135
1.114486928
1.081542843
1.075451943
1.074431991
1.074277094
1.0742556
1.074252854
1.074252529
1.074252493
1.074252489
1.074252489
1.074252489
1.074252489
1.074252489
1.074252489
1.074252489
1.074252489
1.074252489
1.074252489
1.074252489
1.074252489
1.074252489
1.074252489
1.074252489
1.074252489
1.074252489
1.074252489
1.074252489
1.074252489
1.074252489
1.074252489
1.074252489
1.074252489
1.074252489
1.074252489
1.074252489
1.074252489
55294.49558
55294.75298
55295.35884
55296.43654
55298.13134
55300.55098
55303.61081
55306.93173
2742.211563
164.1567768
10.2493868
2.19127634
1.280921349
1.114486928
1.081542843
1.075451943
1.074431991
1.074277094
1.0742556
1.074252854
1.074252529
1.074252493
1.074252489
1.074252489
1.074252489
1.074252489
1.074252489
1.074252489
1.074252489
1.074252489
1.074252489
1.074252489
1.074252489
1.074252489
1.074252489
1.074252489
1.074252489
1.074252489
1.074252489
1.074252489
1.074252489
1.074252489
1.074252489
1.074252489
1.074252489
1.074252489
1.074252489
1.074252489
1.074252489
1.074252489
55294.44373
55294.69
55295.26621
55296.28574
55297.88896
55300.19405
55303.13498
55306.48718
2130.856113
127.0980942
8.789652236
2.074424616
1.263156252
1.111230477
1.080963215
1.075357281
1.074417892
1.074275169
1.074255358
1.074252826
1.074252526
1.074252493
1.074252489
1.074252489
1.074252489
1.074252489
1.074252489
1.074252489
1.074252489
1.074252489
1.074252489
1.074252489
1.074252489
1.074252489
1.074252489
1.074252489
1.074252489
1.074252489
1.074252489
1.074252489
1.074252489
1.074252489
1.074252489
1.074252489
1.074252489
1.074252489
1.074252489
1.074252489
1.074252489
1.074252489
55294.34968
55294.57777
55295.10426
55296.02386
55297.46515
55299.56359
55302.31757
55305.57743
1265.774789
77.36747209
6.629447614
1.881126311
1.232322393
1.105500022
1.079939559
1.075189902
1.074392946
1.074271761
1.074254928
1.074252775
1.07425252
1.074252492
1.074252489
1.074252489
1.074252489
1.074252489
1.074252489
1.074252489
1.074252489
1.074252489
1.074252489
1.074252489
1.074252489
1.074252489
1.074252489
1.074252489
1.074252489
1.074252489
1.074252489
1.074252489
1.074252489
1.074252489
1.074252489
1.074252489
1.074252489
1.074252489
1.074252489
1.074252489
1.074252489
1.074252489
55294.22874
55294.43792
55294.90992
55295.71441
55296.95933
55298.79134
55301.2647
55304.16636
563.7114743
38.57490608
4.608999695
1.66667244
1.195646102
1.098547507
1.07869105
1.074985383
1.074362433
1.074267589
1.074254402
1.074252714
1.074252513
1.074252491
1.074252489
1.074252489
1.074252489
1.074252489
1.074252489
1.074252489
1.074252489
1.074252489
1.074252489
1.074252489
1.074252489
1.074252489
1.074252489
1.074252489
1.074252489
1.074252489
1.074252489
1.074252489
1.074252489
1.074252489
1.074252489
1.074252489
1.074252489
1.074252489
1.074252489
1.074252489
1.074252489
1.074252489
55294.09666
55294.29319
55294.72404
55295.43512
55296.50835
55298.0687
55300.12995
55302.26046
190.2849431
17.05334059
3.134768756
1.474275717
1.160043157
1.091646413
1.077444119
1.074780647
1.074331844
1.074263402
1.074253873
1.074252652
1.074252507
1.074252491
1.074252489
1.074252489
1.074252489
1.074252489
1.074252489
1.074252489
1.074252489
1.074252489
1.074252489
1.074252489
1.074252489
1.074252489
1.074252489
1.074252489
1.074252489
1.074252489
1.074252489
1.074252489
1.074252489
1.074252489
1.074252489
1.074252489
1.074252489
1.074252489
1.074252489
1.074252489
1.074252489
1.074252489
55293.96366
55294.15778
55294.5718
55295.23704
55296.20443
55297.52355
55299.14667
55299.98486
53.19382108
7.494861261
2.207431287
1.324649817
1.130169082
1.085729142
1.076368084
1.074603491
1.074305329
1.074259768
1.074253413
1.074252598
1.074252501
1.07425249
1.074252489
1.074252489
1.074252489
1.074252489
1.074252489
1.074252489
1.074252489
1.074252489
1.074252489
1.074252489
1.074252489
1.074252489
1.074252489
1.074252489
1.074252489
1.074252489
1.074252489
1.074252489
1.074252489
1.074252489
1.074252489
1.074252489
1.074252489
1.074252489
1.074252489
1.074252489
1.074252489
1.074252489
55293.83086
55294.02956
55294.44308
55295.09841
55296.01222
55297.06614
55297.94844
55297.66017
14.81896711
3.679392829
1.671300218
1.220165516
1.107914816
1.081236778
1.075546052
1.074467741
1.074284968
1.074256972
1.074253059
1.074252556
1.074252496
1.07425249
1.074252489
1.074252489
1.074252489
1.074252489
1.074252489
1.074252489
1.074252489
1.074252489
1.074252489
1.074252489
1.074252489
1.074252489
1.074252489
1.074252489
1.074252489
1.074252489
1.074252489
1.074252489
1.074252489
1.074252489
1.074252489
1.074252489
1.074252489
1.074252489
1.074252489
1.074252489
1.074252489
1.074252489
55293.69139
55293.89178
55294.29376
55294.88692
55295.60814
55296.28401
55296.61569
55295.70956
5.085470642
2.167752015
1.376107117
1.153478108
1.0929862
1.07817596
1.074982645
1.074374391
1.074270931
1.07425504
1.074252814
1.074252527
1.074252493
1.074252489
1.074252489
1.074252489
1.074252489
1.074252489
1.074252489
1.074252489
1.074252489
1.074252489
1.074252489
1.074252489
1.074252489
1.074252489
1.074252489
1.074252489
1.074252489
1.074252489
1.074252489
1.074252489
1.074252489
1.074252489
1.074252489
1.074252489
1.074252489
1.074252489
1.074252489
1.074252489
1.074252489
1.074252489
55293.52003
55293.69482
55294.02685
55294.47412
55294.9482
55295.34706
55295.3419
55294.68265
2.420530788
1.542158614
1.219709012
1.11429231
1.083895464
1.076288752
1.0746333
1.074316298
1.074262171
1.074253832
1.07425266
1.074252509
1.074252491
1.074252489
1.074252489
1.074252489
1.074252489
1.074252489
1.074252489
1.074252489
1.074252489
1.074252489
1.074252489
1.074252489
1.074252489
1.074252489
1.074252489
1.074252489
1.074252489
1.074252489
1.074252489
1.074252489
1.074252489
1.074252489
1.074252489
1.074252489
1.074252489
1.074252489
1.074252489
1.074252489
1.074252489
1.074252489
55293.32352
55293.45221
55293.6849
55293.97874
55294.27189
55294.46295
55294.2959
55294.33997
1.568584543
1.272413919
1.140453557
1.093058922
1.078845847
1.075229795
1.07443619
1.074283392
1.074257194
1.074253143
1.074252573
1.074252499
1.07425249
1.074252489
1.074252489
1.074252489
1.074252489
1.074252489
1.074252489
1.074252489
1.074252489
1.074252489
1.074252489
1.074252489
1.074252489
1.074252489
1.074252489
1.074252489
1.074252489
1.074252489
1.074252489
1.074252489
1.074252489
1.074252489
1.074252489
1.074252489
1.074252489
1.074252489
1.074252489
1.074252489
1.074252489
1.074252489
55293.13099
55293.21486
55293.36294
55293.54418
55293.70787
55293.76675
55293.56227
55293.36629
1.260073745
1.15512128
1.102493438
1.08245293
1.076278714
1.074686732
1.074334546
1.074266352
1.074254607
1.074252784
1.074252527
1.074252493
1.074252489
1.074252489
1.074252489
1.074252489
1.074252489
1.074252489
1.074252489
1.074252489
1.074252489
1.074252489
1.074252489
1.074252489
1.074252489
1.074252489
1.074252489
1.074252489
1.074252489
1.074252489
1.074252489
1.074252489
1.074252489
1.074252489
1.074252489
1.074252489
1.074252489
1.074252489
1.074252489
1.074252489
1.074252489
1.074252489
55292.96803
55293.01996
55293.10923
55293.21344
55293.29429
55293.28989
55293.11586
55292.73703
1.142468316
1.105490943
1.08549092
1.077571202
1.075081011
1.074431332
1.074286472
1.074258256
1.074253373
1.074252613
1.074252505
1.074252491
1.074252489
1.074252489
1.074252489
1.074252489
1.074252489
1.074252489
1.074252489
1.074252489
1.074252489
1.074252489
1.074252489
1.074252489
1.074252489
1.074252489
1.074252489
1.074252489
1.074252489
1.074252489
1.074252489
1.074252489
1.074252489
1.074252489
1.074252489
1.074252489
1.074252489
1.074252489
1.074252489
1.074252489
1.074252489
1.074252489
55292.84201
55292.87237
55292.92299
55292.97859
55293.01372
55292.99035
55292.86779
55292.64814
1.098102954
1.085568136
1.078416029
1.075499695
1.07456691
1.074320853
1.074265554
1.074254717
1.074252832
1.074252537
1.074252495
1.07425249
1.074252489
1.074252489
1.074252489
1.074252489
1.074252489
1.074252489
1.074252489
1.074252489
1.074252489
1.074252489
1.074252489
1.074252489
1.074252489
1.074252489
1.074252489
1.074252489
1.074252489
1.074252489
1.074252489
1.074252489
1.074252489
1.074252489
1.074252489
1.074252489
1.074252489
1.074252489
1.074252489
1.074252489
1.074252489
1.074252489
55292.75113
55292.76789
55292.79488
55292.82228
55292.83483
55292.81183
55292.73511
55292.63167
1.082120438
1.078083758
1.075688507
1.074688255
1.074363391
1.07427678
1.074257159
1.074253289
1.074252613
1.074252506
1.074252491
1.074252489
1.074252489
1.074252489
1.074252489
1.074252489
1.074252489
1.074252489
1.074252489
1.074252489
1.074252489
1.074252489
1.074252489
1.074252489
1.074252489
1.074252489
1.074252489
1.074252489
1.074252489
1.074252489
1.074252489
1.074252489
1.074252489
1.074252489
1.074252489
1.074252489
1.074252489
1.074252489
1.074252489
1.074252489
1.074252489
1.074252489
55292.68932
55292.69809
55292.71166
55292.72412
55292.72695
55292.70984
55292.66524
55292.62274
1.076703448
1.07546594
1.074714258
1.074394277
1.074288906
1.074260524
1.074254043
1.074252756
1.07425253
1.074252495
1.07425249
1.074252489
1.074252489
1.074252489
1.074252489
1.074252489
1.074252489
1.074252489
1.074252489
1.074252489
1.074252489
1.074252489
1.074252489
1.074252489
1.074252489
1.074252489
1.074252489
1.074252489
1.074252489
1.074252489
1.074252489
1.074252489
1.074252489
1.074252489
1.074252489
1.074252489
1.074252489
1.074252489
1.074252489
1.074252489
1.074252489
1.074252489
55292.64935
55292.65371
55292.66017
55292.66536
55292.6648
55292.65361
55292.62889
55292.60932
1.074979781
1.074613384
1.074391286
1.074295543
1.074263642
1.074254967
1.074252971
1.074252572
1.074252502
1.074252491
1.074252489
1.074252489
1.074252489
1.074252489
1.074252489
1.074252489
1.074252489
1.074252489
1.074252489
1.074252489
1.074252489
1.074252489
1.074252489
1.074252489
1.074252489
1.074252489
1.074252489
1.074252489
1.074252489
1.074252489
1.074252489
1.074252489
1.074252489
1.074252489
1.074252489
1.074252489
1.074252489
1.074252489
1.074252489
1.074252489
1.074252489
1.074252489
55292.62461
55292.62667
55292.62958
55292.63151
55292.63021
55292.62345
55292.6102
55292.59875
1.074461721
1.07435401
1.074291637
1.074264722
1.074255682
1.074253203
1.074252629
1.074252513
1.074252493
1.074252489
1.074252489
1.074252489
1.074252489
1.074252489
1.074252489
1.074252489
1.074252489
1.074252489
1.074252489
1.074252489
1.074252489
1.074252489
1.074252489
1.074252489
1.074252489
1.074252489
1.074252489
1.074252489
1.074252489
1.074252489
1.074252489
1.074252489
1.074252489
1.074252489
1.074252489
1.074252489
1.074252489
1.074252489
1.074252489
1.074252489
1.074252489
1.074252489
55292.60986
55292.61079
55292.61202
55292.61262
55292.61148
55292.60762
55292.6007
55292.593
1.074312597
1.074279843
1.074262913
1.074255753
1.074253345
1.074252682
1.074252527
1.074252495
1.07425249
1.074252489
1.074252489
1.074252489
1.074252489
1.074252489
1.074252489
1.074252489
1.074252489
1.074252489
1.074252489
1.074252489
1.074252489
1.074252489
1.074252489
1.074252489
1.074252489
1.074252489
1.074252489
1.074252489
1.074252489
1.074252489
1.074252489
1.074252489
1.074252489
1.074252489
1.074252489
1.074252489
1.074252489
1.074252489
1.074252489
1.074252489
1.074252489
1.074252489
55292.60136
55292.60176
55292.60225
55292.60236
55292.60157
55292.59945
55292.59591
55292.5914
1.074270473
1.074259703
1.074255136
1.074253311
1.074252705
1.074252538
1.074252498
1.07425249
1.074252489
1.074252489
1.074252489
1.074252489
1.074252489
1.074252489
1.074252489
1.074252489
1.074252489
1.074252489
1.074252489
1.074252489
1.074252489
1.074252489
1.074252489
1.074252489
1.074252489
1.074252489
1.074252489
1.074252489
1.074252489
1.074252489
1.074252489
1.074252489
1.074252489
1.074252489
1.074252489
1.074252489
1.074252489
1.074252489
1.074252489
1.074252489
1.074252489
1.074252489
55292.59661
55292.59678
55292.59695
55292.59691
55292.59642
55292.5953
55292.59353
55292.59132
1.074258342
1.074254418
1.074253141
1.074252686
1.07425254
1.0742525
1.074252491
1.074252489
1.074252489
1.074252489
1.074252489
1.074252489
1.074252489
1.074252489
1.074252489
1.074252489
1.074252489
1.074252489
1.074252489
1.074252489
1.074252489
1.074252489
1.074252489
1.074252489
1.074252489
1.074252489
1.074252489
1.074252489
1.074252489
1.074252489
1.074252489
1.074252489
1.074252489
1.074252489
1.074252489
1.074252489
1.074252489
1.074252489
1.074252489
1.074252489
1.074252489
1.074252489
55292.59403
55292.59409
55292.59414
55292.59408
55292.5938
55292.59322
55292.59235
55292.59129
1.074254604
1.074253037
1.07425265
1.074252535
1.074252501
1.074252491
1.074252489
1.074252489
1.074252489
1.074252489
1.074252489
1.074252489
1.074252489
1.074252489
1.074252489
1.074252489
1.074252489
1.074252489
1.074252489
1.074252489
1.074252489
1.074252489
1.074252489
1.074252489
1.074252489
1.074252489
1.074252489
1.074252489
1.074252489
1.074252489
1.074252489
1.074252489
1.074252489
1.074252489
1.074252489
1.074252489
1.074252489
1.074252489
1.074252489
1.074252489
1.074252489
1.074252489
55292.59266
55292.59268
55292.59269
55292.59264
55292.59249
55292.5922
55292.59178
55292.59127
1.074253324
1.074252661
1.07425253
1.074252499
1.074252491
1.074252489
1.074252489
1.074252489
1.074252489
1.074252489
1.074252489
1.074252489
1.074252489
1.074252489
1.074252489
1.074252489
1.074252489
1.074252489
1.074252489
1.074252489
1.074252489
1.074252489
1.074252489
1.074252489
1.074252489
1.074252489
1.074252489
1.074252489
1.074252489
1.074252489
1.074252489
1.074252489
1.074252489
1.074252489
1.074252489
1.074252489
1.074252489
1.074252489
1.074252489
1.074252489
1.074252489
1.074252489
55292.59194
55292.59194
55292.59194
55292.59191
55292.59183
55292.59169
55292.5915
55292.59126
1.074252834
1.074252549
1.0742525
1.074252491
1.074252489
1.074252489
1.074252489
1.074252489
1.074252489
1.074252489
1.074252489
1.074252489
1.074252489
1.074252489
1.074252489
1.074252489
1.074252489
1.074252489
1.074252489
1.074252489
1.074252489
1.074252489
1.074252489
1.074252489
1.074252489
1.074252489
1.074252489
1.074252489
1.074252489
1.074252489
1.074252489
1.074252489
1.074252489
1.074252489
1.074252489
1.074252489
1.074252489
1.074252489
1.074252489
1.074252489
1.074252489
1.074252489
55292.59156
55292.59156
55292.59156
55292.59154
55292.59151
55292.59145
55292.59136
55292.59126
1.074252627
1.07425251
1.074252492
1.074252489
1.074252489
1.074252489
1.074252489
1.074252489
1.074252489
1.074252489
1.074252489
1.074252489
1.074252489
1.074252489
1.074252489
1.074252489
1.074252489
1.074252489
1.074252489
1.074252489
1.074252489
1.074252489
1.074252489
1.074252489
1.074252489
1.074252489
1.074252489
1.074252489
1.074252489
1.074252489
1.074252489
1.074252489
1.074252489
1.074252489
1.074252489
1.074252489
1.074252489
1.074252489
1.074252489
1.074252489
1.074252489
1.074252489
55292.59134
55292.59134