/*--------------------------------*- C++ -*----------------------------------*\
  =========                 |
  \\      /  F ield         | OpenFOAM: The Open Source CFD Toolbox
   \\    /   O peration     | Website:  https://openfoam.org
    \\  /    A nd           | Version:  6
     \\/     M anipulation  |
\*---------------------------------------------------------------------------*/
FoamFile
{
    version     2.0;
    format      ascii;
    class       volScalarField;
    location    "0.02";
    object      Temperature;
}
// * * * * * * * * * * * * * * * * * * * * * * * * * * * * * * * * * * * * * //

dimensions      [0 0 0 1 0 0 0];

internalField   nonuniform List<scalar> 
2500
(
300.001185
300.0011868
300.0011702
300.0011044
300.0009599
300.0007202
300.0003925
300.0000103
300.0000009
300.0000001
300
300
300
300
300
300
300
300
300
300
300
300
300
300
300
300
300
300
300
300
300
300
300
300
300
300
300
300
300
300
300
300
300
300
300
300
300
300
300
300
300.0041895
300.0042065
300.0041644
300.0039488
300.0034475
300.0025964
300.0014185
300.0000375
300.0000033
300.0000005
300.0000001
300
300
300
300
300
300
300
300
300
300
300
300
300
300
300
300
300
300
300
300
300
300
300
300
300
300
300
300
300
300
300
300
300
300
300
300
300
300
300
300.0093773
300.0094588
300.0094333
300.00902
300.0079383
300.0060186
300.003303
300.0000878
300.0000081
300.0000014
300.0000003
300.0000001
300
300
300
300
300
300
300
300
300
300
300
300
300
300
300
300
300
300
300
300
300
300
300
300
300
300
300
300
300
300
300
300
300
300
300
300
300
300
300.0192227
300.0195058
300.0196389
300.0189821
300.0168801
300.0129108
300.0071283
300.0001917
300.0000197
300.0000041
300.000001
300.0000002
300.0000001
300
300
300
300
300
300
300
300
300
300
300
300
300
300
300
300
300
300
300
300
300
300
300
300
300
300
300
300
300
300
300
300
300
300
300
300
300
300.038053
300.0388845
300.0395879
300.0387512
300.0348866
300.0269666
300.0150017
300.0004121
300.0000497
300.0000129
300.0000038
300.0000011
300.0000003
300.0000001
300
300
300
300
300
300
300
300
300
300
300
300
300
300
300
300
300
300
300
300
300
300
300
300
300
300
300
300
300
300
300
300
300
300
300
300
300.0734774
300.075685
300.0780348
300.0774973
300.0707698
300.0553931
300.031106
300.0008898
300.0001374
300.0000453
300.0000153
300.0000046
300.0000012
300.0000003
300.0000001
300
300
300
300
300
300
300
300
300
300
300
300
300
300
300
300
300
300
300
300
300
300
300
300
300
300
300
300
300
300
300
300
300
300
300
300.1385648
300.1440204
300.1506231
300.1520593
300.1411619
300.1121461
300.0637213
300.0019663
300.0004213
300.000169
300.0000621
300.0000193
300.0000051
300.0000012
300.0000002
300
300
300
300
300
300
300
300
300
300
300
300
300
300
300
300
300
300
300
300
300
300
300
300
300
300
300
300
300
300
300
300
300
300
300
300.2549815
300.2677154
300.2844991
300.292595
300.2768395
300.2238694
300.1291199
300.0045481
300.0014059
300.00064
300.0002442
300.0000766
300.0000201
300.0000045
300.0000009
300.0000002
300
300
300
300
300
300
300
300
300
300
300
300
300
300
300
300
300
300
300
300
300
300
300
300
300
300
300
300
300
300
300
300
300
300
300.4571137
300.4853792
300.5250801
300.5514618
300.5333601
300.4405422
300.2590091
300.0112223
300.0048873
300.0023733
300.0009164
300.0002868
300.000075
300.0000168
300.0000033
300.0000006
300.0000001
300
300
300
300
300
300
300
300
300
300
300
300
300
300
300
300
300
300
300
300
300
300
300
300
300
300
300
300
300
300
300
300
300
300.7966945
300.8565199
300.9450132
301.016121
301.0079635
300.8538496
300.5145671
300.0296271
300.0169688
300.00843
300.0032471
300.0010089
300.0002618
300.0000583
300.0000114
300.000002
300.0000003
300
300
300
300
300
300
300
300
300
300
300
300
300
300
300
300
300
300
300
300
300
300
300
300
300
300
300
300
300
300
300
300
300
301.3464796
301.4672352
301.654078
301.8256212
301.8640148
301.6269808
301.0125218
300.0821308
300.0571052
300.0283188
300.0107957
300.0033208
300.0008544
300.0001889
300.0000366
300.0000063
300.000001
300.0000001
300
300
300
300
300
300
300
300
300
300
300
300
300
300
300
300
300
300
300
300
300
300
300
300
300
300
300
300
300
300
300
300
302.2000248
302.432125
302.8061898
303.1866222
303.3602426
303.0383364
301.9735036
300.2316488
300.1828287
300.0892768
300.0335441
300.0102
300.0026008
300.0005707
300.0001099
300.0000189
300.0000029
300.0000004
300.0000001
300
300
300
300
300
300
300
300
300
300
300
300
300
300
300
300
300
300
300
300
300
300
300
300
300
300
300
300
300
300
300
303.4629523
303.8867882
304.5957238
305.3776813
305.8724241
305.5386809
303.8138162
300.6444609
300.5505739
300.2628056
300.0971127
300.0291718
300.0073698
300.0016054
300.0003074
300.0000525
300.0000081
300.0000011
300.0000001
300
300
300
300
300
300
300
300
300
300
300
300
300
300
300
300
300
300
300
300
300
300
300
300
300
300
300
300
300
300
300
305.2301655
305.9639749
307.2329854
308.7266748
309.8934309
309.8246312
307.3129083
301.7269313
301.5481429
300.7197442
300.2613179
300.0775317
300.0194084
300.004198
300.0007992
300.0001359
300.0000209
300.0000029
300.0000004
300
300
300
300
300
300
300
300
300
300
300
300
300
300
300
300
300
300
300
300
300
300
300
300
300
300
300
300
300
300
300
307.5439878
308.7482825
310.8964429
313.5646001
316.011555
316.894752
313.8110974
304.3834507
304.0437525
301.8285389
300.6521893
300.1911514
300.0474261
300.0101885
300.0019291
300.0003265
300.00005
300.000007
300.0000009
300.0000001
300
300
300
300
300
300
300
300
300
300
300
300
300
300
300
300
300
300
300
300
300
300
300
300
300
300
300
300
300
300
310.320189
312.2044187
315.6679583
320.1488506
324.7441399
327.8015008
325.0948548
310.419215
309.7722572
304.2985687
301.5067943
300.4364591
300.1073721
300.0229179
300.004317
300.0007276
300.000111
300.0000155
300.000002
300.0000002
300
300
300
300
300
300
300
300
300
300
300
300
300
300
300
300
300
300
300
300
300
300
300
300
300
300
300
300
300
300
313.2007445
315.8106004
320.8872647
327.9847708
335.8526377
342.7572825
342.6381752
323.0095336
321.7774693
309.3295816
303.2169021
300.9215325
300.2249073
300.0477173
300.0089458
300.0015019
300.0002283
300.0000317
300.0000041
300.0000005
300.0000001
300
300
300
300
300
300
300
300
300
300
300
300
300
300
300
300
300
300
300
300
300
300
300
300
300
300
300
300
300
315.7506452
318.7904073
325.0668982
334.7907864
347.4194597
360.1408977
366.7099795
346.8892992
344.6256442
318.6567408
306.3359858
301.7966427
300.4353047
300.0918512
300.0171457
300.0028685
300.0004348
300.0000603
300.0000077
300.0000009
300.0000001
300
300
300
300
300
300
300
300
300
300
300
300
300
300
300
300
300
300
300
300
300
300
300
300
300
300
300
300
300
317.8532938
320.9021228
327.4389942
338.3631462
354.8729898
376.0303728
395.7775413
387.5507342
383.8774663
334.312972
311.4959375
303.2302816
300.7775956
300.1632779
300.0303623
300.0050638
300.0007655
300.0001059
300.0000135
300.0000016
300.0000002
300
300
300
300
300
300
300
300
300
300
300
300
300
300
300
300
300
300
300
300
300
300
300
300
300
300
300
300
300
319.8833975
322.896845
329.5194567
340.7506438
358.5218777
385.9687302
426.1267782
449.0299713
444.3249122
357.9533898
319.1904811
305.350163
301.2806894
300.2677856
300.0496316
300.0082552
300.0012452
300.0001718
300.0000219
300.0000026
300.0000003
300
300
300
300
300
300
300
300
300
300
300
300
300
300
300
300
300
300
300
300
300
300
300
300
300
300
300
300
300
321.9434257
325.0328403
332.0204029
344.2381972
364.4884244
398.5836744
454.7756975
531.1489063
527.0612981
389.7892447
329.4453049
308.1555618
301.9431172
300.4048699
300.0748322
300.0124189
300.0018697
300.0002576
300.0000327
300.0000039
300.0000004
300
300
300
300
300
300
300
300
300
300
300
300
300
300
300
300
300
300
300
300
300
300
300
300
300
300
300
300
300
324.0167736
327.3492629
335.1308463
349.2890636
373.7322235
416.6483789
493.0761146
627.0511185
626.4156611
427.5246566
341.4990253
311.4343614
302.7141735
300.5639446
300.1040049
300.0172294
300.00259
300.0003564
300.0000452
300.0000053
300.0000006
300.0000001
300
300
300
300
300
300
300
300
300
300
300
300
300
300
300
300
300
300
300
300
300
300
300
300
300
300
300
300
325.9393307
329.6201416
338.4471219
355.0621549
384.6696466
437.8333035
534.8149351
723.7733682
728.7051767
465.9733129
353.6994642
314.7382821
303.4886684
300.7233479
300.1331832
300.0220335
300.0033085
300.0004548
300.0000577
300.0000068
300.0000007
300.0000001
300
300
300
300
300
300
300
300
300
300
300
300
300
300
300
300
300
300
300
300
300
300
300
300
300
300
300
300
327.4506094
331.4655719
341.2611602
360.0979538
394.335246
456.7850583
572.4239077
803.7896716
814.3109811
497.9021626
363.7810366
317.4593711
304.1250444
300.8540959
300.1570838
300.0259644
300.0038958
300.0005352
300.0000678
300.000008
300.0000009
300.0000001
300
300
300
300
300
300
300
300
300
300
300
300
300
300
300
300
300
300
300
300
300
300
300
300
300
300
300
300
328.2897708
332.5101168
342.8916584
363.0624602
400.0839859
468.2588066
596.8545213
849.7849273
863.4305881
516.1280665
369.5173953
319.0043763
304.4858376
300.9281427
300.1706081
300.0281872
300.0042278
300.0005806
300.0000736
300.0000087
300.000001
300.0000001
300
300
300
300
300
300
300
300
300
300
300
300
300
300
300
300
300
300
300
300
300
300
300
300
300
300
300
300
328.2897685
332.5101145
342.8916564
363.0624594
400.0839875
468.2588107
596.8545219
849.7849232
863.4305822
516.1280642
369.5173946
319.0043761
304.4858376
300.9281427
300.1706081
300.0281872
300.0042278
300.0005806
300.0000736
300.0000087
300.000001
300.0000001
300
300
300
300
300
300
300
300
300
300
300
300
300
300
300
300
300
300
300
300
300
300
300
300
300
300
300
300
327.4506021
331.4655644
341.2611531
360.0979495
394.335249
456.7850712
572.4239203
803.7896606
814.3109648
497.9021565
363.7810348
317.4593707
304.1250443
300.8540959
300.1570838
300.0259644
300.0038958
300.0005352
300.0000678
300.000008
300.0000009
300.0000001
300
300
300
300
300
300
300
300
300
300
300
300
300
300
300
300
300
300
300
300
300
300
300
300
300
300
300
300
325.9393173
329.6201269
338.4471061
355.0621412
384.6696429
437.8333169
534.8149552
723.7733617
728.7051603
465.9733068
353.6994625
314.7382817
303.4886683
300.7233479
300.1331832
300.0220335
300.0033085
300.0004548
300.0000577
300.0000068
300.0000007
300.0000001
300
300
300
300
300
300
300
300
300
300
300
300
300
300
300
300
300
300
300
300
300
300
300
300
300
300
300
300
324.016753
327.3492391
335.130817
349.28903
373.7321932
416.6483624
493.0761184
627.0511307
626.4156583
427.5246554
341.499025
311.4343613
302.7141735
300.5639446
300.1040049
300.0172294
300.00259
300.0003564
300.0000452
300.0000053
300.0000006
300.0000001
300
300
300
300
300
300
300
300
300
300
300
300
300
300
300
300
300
300
300
300
300
300
300
300
300
300
300
300
321.9433983
325.0328068
332.020357
344.2381346
364.4883448
398.5835742
454.7755553
531.1489396
527.061312
389.7892493
329.445306
308.1555621
301.9431172
300.4048699
300.0748322
300.0124189
300.0018697
300.0002576
300.0000327
300.0000039
300.0000004
300
300
300
300
300
300
300
300
300
300
300
300
300
300
300
300
300
300
300
300
300
300
300
300
300
300
300
300
300
319.8833657
322.8968044
329.5193979
340.7505574
358.5217578
385.9685749
426.1266115
449.0300079
444.3249313
357.9533961
319.1904826
305.3501633
301.2806894
300.2677856
300.0496316
300.0082552
300.0012452
300.0001718
300.0000219
300.0000026
300.0000003
300
300
300
300
300
300
300
300
300
300
300
300
300
300
300
300
300
300
300
300
300
300
300
300
300
300
300
300
300
317.8532613
320.9020807
327.4389316
338.3630524
354.8728639
376.0302379
395.7774309
387.5507521
383.8774761
334.3129755
311.4959385
303.2302818
300.7775956
300.1632779
300.0303623
300.0050638
300.0007655
300.0001059
300.0000135
300.0000016
300.0000002
300
300
300
300
300
300
300
300
300
300
300
300
300
300
300
300
300
300
300
300
300
300
300
300
300
300
300
300
300
315.7506174
318.7903727
325.0668501
334.7907203
347.4193794
360.1408131
366.7099128
346.8893018
344.6256475
318.656742
306.3359861
301.7966427
300.4353047
300.0918512
300.0171457
300.0028685
300.0004348
300.0000603
300.0000077
300.0000009
300.0000001
300
300
300
300
300
300
300
300
300
300
300
300
300
300
300
300
300
300
300
300
300
300
300
300
300
300
300
300
300
313.2007239
315.8105765
320.8872347
327.9847328
335.8525932
342.7572354
342.6381395
323.0095339
321.7774702
309.3295818
303.2169021
300.9215325
300.2249073
300.0477173
300.0089458
300.0015019
300.0002283
300.0000317
300.0000041
300.0000005
300.0000001
300
300
300
300
300
300
300
300
300
300
300
300
300
300
300
300
300
300
300
300
300
300
300
300
300
300
300
300
300
310.3201749
312.204403
315.6679399
320.148829
324.7441148
327.8014768
325.0948402
310.4192172
309.7722571
304.2985686
301.5067943
300.4364591
300.1073721
300.0229179
300.004317
300.0007276
300.000111
300.0000155
300.000002
300.0000002
300
300
300
300
300
300
300
300
300
300
300
300
300
300
300
300
300
300
300
300
300
300
300
300
300
300
300
300
300
300
307.5439786
308.7482724
310.8964312
313.5645868
316.0115405
316.8947394
313.8110907
304.3834495
304.0437522
301.8285388
300.6521893
300.1911514
300.0474261
300.0101885
300.0019291
300.0003265
300.00005
300.000007
300.0000009
300.0000001
300
300
300
300
300
300
300
300
300
300
300
300
300
300
300
300
300
300
300
300
300
300
300
300
300
300
300
300
300
300
305.2301596
305.9639685
307.2329782
308.7266668
309.8934225
309.8246237
307.3129037
301.7269309
301.5481428
300.7197442
300.2613178
300.0775317
300.0194084
300.004198
300.0007992
300.0001359
300.0000209
300.0000029
300.0000004
300
300
300
300
300
300
300
300
300
300
300
300
300
300
300
300
300
300
300
300
300
300
300
300
300
300
300
300
300
300
300
303.4629487
303.8867842
304.5957194
305.3776765
305.8724192
305.5386765
303.8138135
300.6444609
300.5505739
300.2628056
300.0971127
300.0291718
300.0073698
300.0016054
300.0003074
300.0000525
300.0000081
300.0000011
300.0000001
300
300
300
300
300
300
300
300
300
300
300
300
300
300
300
300
300
300
300
300
300
300
300
300
300
300
300
300
300
300
300
302.2000226
302.4321227
302.8061872
303.1866194
303.3602398
303.038334
301.973502
300.2316487
300.1828287
300.0892768
300.0335441
300.0102
300.0026008
300.0005707
300.0001099
300.0000189
300.0000029
300.0000004
300.0000001
300
300
300
300
300
300
300
300
300
300
300
300
300
300
300
300
300
300
300
300
300
300
300
300
300
300
300
300
300
300
300
301.3464783
301.4672338
301.6540766
301.8256197
301.8640133
301.6269795
301.012521
300.0821308
300.0571052
300.0283188
300.0107957
300.0033208
300.0008544
300.0001889
300.0000366
300.0000063
300.000001
300.0000001
300
300
300
300
300
300
300
300
300
300
300
300
300
300
300
300
300
300
300
300
300
300
300
300
300
300
300
300
300
300
300
300
300.7966937
300.8565191
300.9450124
301.0161202
301.0079628
300.853849
300.5145668
300.0296271
300.0169688
300.00843
300.0032471
300.0010089
300.0002618
300.0000583
300.0000114
300.000002
300.0000003
300
300
300
300
300
300
300
300
300
300
300
300
300
300
300
300
300
300
300
300
300
300
300
300
300
300
300
300
300
300
300
300
300
300.4571133
300.4853787
300.5250796
300.5514614
300.5333597
300.4405419
300.259009
300.0112222
300.0048873
300.0023733
300.0009164
300.0002868
300.000075
300.0000168
300.0000033
300.0000006
300.0000001
300
300
300
300
300
300
300
300
300
300
300
300
300
300
300
300
300
300
300
300
300
300
300
300
300
300
300
300
300
300
300
300
300
300.2549812
300.2677152
300.2844989
300.2925948
300.2768393
300.2238693
300.1291198
300.0045481
300.0014059
300.00064
300.0002442
300.0000766
300.0000201
300.0000045
300.0000009
300.0000002
300
300
300
300
300
300
300
300
300
300
300
300
300
300
300
300
300
300
300
300
300
300
300
300
300
300
300
300
300
300
300
300
300
300
300.1385646
300.1440202
300.150623
300.1520592
300.1411618
300.112146
300.0637212
300.0019663
300.0004213
300.000169
300.0000621
300.0000193
300.0000051
300.0000012
300.0000002
300
300
300
300
300
300
300
300
300
300
300
300
300
300
300
300
300
300
300
300
300
300
300
300
300
300
300
300
300
300
300
300
300
300
300
300.0734774
300.0756849
300.0780347
300.0774973
300.0707697
300.0553931
300.0311059
300.0008898
300.0001374
300.0000453
300.0000153
300.0000046
300.0000012
300.0000003
300.0000001
300
300
300
300
300
300
300
300
300
300
300
300
300
300
300
300
300
300
300
300
300
300
300
300
300
300
300
300
300
300
300
300
300
300
300
300.038053
300.0388845
300.0395879
300.0387511
300.0348866
300.0269666
300.0150017
300.0004121
300.0000497
300.0000129
300.0000038
300.0000011
300.0000003
300.0000001
300
300
300
300
300
300
300
300
300
300
300
300
300
300
300
300
300
300
300
300
300
300
300
300
300
300
300
300
300
300
300
300
300
300
300
300
300.0192227
300.0195057
300.0196389
300.0189821
300.0168801
300.0129108
300.0071283
300.0001917
300.0000197
300.0000041
300.000001
300.0000002
300.0000001
300
300
300
300
300
300
300
300
300
300
300
300
300
300
300
300
300
300
300
300
300
300
300
300
300
300
300
300
300
300
300
300
300
300
300
300
300
300.0093773
300.0094588
300.0094333
300.00902
300.0079383
300.0060186
300.003303
300.0000878
300.0000081
300.0000014
300.0000003
300.0000001
300
300
300
300
300
300
300
300
300
300
300
300
300
300
300
300
300
300
300
300
300
300
300
300
300
300
300
300
300
300
300
300
300
300
300
300
300
300
300.0041895
300.0042065
300.0041644
300.0039488
300.0034475
300.0025964
300.0014185
300.0000375
300.0000033
300.0000005
300.0000001
300
300
300
300
300
300
300
300
300
300
300
300
300
300
300
300
300
300
300
300
300
300
300
300
300
300
300
300
300
300
300
300
300
300
300
300
300
300
300
300.001185
300.0011868
300.0011702
300.0011044
300.0009599
300.0007202
300.0003925
300.0000103
300.0000009
300.0000001
300
300
300
300
300
300
300
300
300
300
300
300
300
300
300
300
300
300
300
300
300
300
300
300
300
300
300
300
300
300
300
300
300
300
300
300
300
300
300
300
)
;

boundaryField
{
    lowerWall
    {
        type            fixedValue;
        value           uniform 300;
    }
    atmosphere
    {
        type            zeroGradient;
    }
    rightWall
    {
        type            empty;
    }
    leftWall
    {
        type            empty;
    }
    frontAndBack
    {
        type            fixedValue;
        value           uniform 300;
    }
}


// ************************************************************************* //
