/*--------------------------------*- C++ -*----------------------------------*\
  =========                 |
  \\      /  F ield         | OpenFOAM: The Open Source CFD Toolbox
   \\    /   O peration     | Website:  https://openfoam.org
    \\  /    A nd           | Version:  6
     \\/     M anipulation  |
\*---------------------------------------------------------------------------*/
FoamFile
{
    version     2.0;
    format      ascii;
    class       volVectorField;
    location    "0.02";
    object      U;
}
// * * * * * * * * * * * * * * * * * * * * * * * * * * * * * * * * * * * * * //

dimensions      [0 1 -1 0 0 0 0];

internalField   nonuniform List<vector> 
2500
(
(0 -0.02274002623 -0.0003526428721)
(0 -0.0212836117 -0.0008737325257)
(0 -0.01904853281 -0.001364791422)
(0 -0.0158248045 -0.001789900357)
(0 -0.01183700067 -0.002126485824)
(0 -0.007464930872 -0.002355821115)
(0 -0.001005697732 -0.002311150065)
(0 3.222787283e-05 -8.592920992e-05)
(0 -3.742210328e-15 -4.628481937e-19)
(0 -7.443625989e-15 -3.161730662e-17)
(0 -7.340797761e-15 -6.180310313e-17)
(0 -7.189140175e-15 -8.990154665e-17)
(0 -6.984231953e-15 -1.150655623e-16)
(0 -6.73259679e-15 -1.366607218e-16)
(0 -6.441775542e-15 -1.542853996e-16)
(0 -6.119880714e-15 -1.677698328e-16)
(0 -5.775152973e-15 -1.771553677e-16)
(0 -5.415573899e-15 -1.826593051e-16)
(0 -5.048556967e-15 -1.846319538e-16)
(0 -4.680726154e-15 -1.835120129e-16)
(0 -4.317780749e-15 -1.797850286e-16)
(0 -3.964437119e-15 -1.739480025e-16)
(0 -3.624433615e-15 -1.664816628e-16)
(0 -3.300583011e-15 -1.578306441e-16)
(0 -2.994857293e-15 -1.483909555e-16)
(0 -2.708491349e-15 -1.385036079e-16)
(0 -2.442094543e-15 -1.284530711e-16)
(0 -2.195761873e-15 -1.184692372e-16)
(0 -1.969178853e-15 -1.087317102e-16)
(0 -1.761716472e-15 -9.937544385e-17)
(0 -1.572514259e-15 -9.049697421e-17)
(0 -1.400550847e-15 -8.216070037e-17)
(0 -1.24470228e-15 -7.440484835e-17)
(0 -1.103788929e-15 -6.72468962e-17)
(0 -9.766122104e-16 -6.068834827e-17)
(0 -8.619824419e-16 -5.471882454e-17)
(0 -7.58739182e-16 -4.931948353e-17)
(0 -6.657653437e-16 -4.446582903e-17)
(0 -5.81996242e-16 -4.012996902e-17)
(0 -5.064245965e-16 -3.628240156e-17)
(0 -4.381023614e-16 -3.289340302e-17)
(0 -3.761401046e-16 -2.993409061e-17)
(0 -3.197045204e-16 -2.737722668e-17)
(0 -2.68014526e-16 -2.519783173e-17)
(0 -2.203362441e-16 -2.337368559e-17)
(0 -1.759769608e-16 -2.188585431e-17)
(0 -1.34277654e-16 -2.071959913e-17)
(0 -9.460216981e-17 -1.986685061e-17)
(0 -5.631556468e-17 -1.933468911e-17)
(0 -1.871962544e-17 -1.917898629e-17)
(0 -0.02391162576 -0.001075078398)
(0 -0.02238241243 -0.002667499305)
(0 -0.02002748721 -0.004170274683)
(0 -0.01663704795 -0.00546932684)
(0 -0.01244541555 -0.006499460719)
(0 -0.007838487797 -0.007197951185)
(0 -0.001028449196 -0.00706255857)
(0 3.351520438e-05 -0.0002554912797)
(0 -3.773367455e-15 -1.36602252e-18)
(0 -7.505199978e-15 -9.594687073e-17)
(0 -7.399082001e-15 -1.875477459e-16)
(0 -7.242402634e-15 -2.727045249e-16)
(0 -7.030991128e-15 -3.488451808e-16)
(0 -6.771816627e-15 -4.140464846e-16)
(0 -6.472884653e-15 -4.671044319e-16)
(0 -6.142750682e-15 -5.0753041e-16)
(0 -5.790042445e-15 -5.354835498e-16)
(0 -5.423050485e-15 -5.516586434e-16)
(0 -5.049409675e-15 -5.571511882e-16)
(0 -4.675879229e-15 -5.533187889e-16)
(0 -4.308216738e-15 -5.416534467e-16)
(0 -3.951133754e-15 -5.236738768e-16)
(0 -3.608316257e-15 -5.008420682e-16)
(0 -3.282492303e-15 -4.745044466e-16)
(0 -2.975530257e-15 -4.458554031e-16)
(0 -2.688553465e-15 -4.159195068e-16)
(0 -2.422060172e-15 -3.855481965e-16)
(0 -2.176040512e-15 -3.554268535e-16)
(0 -1.95008506e-15 -3.26088646e-16)
(0 -1.743481736e-15 -2.979321973e-16)
(0 -1.555299515e-15 -2.712408289e-16)
(0 -1.384458721e-15 -2.462017692e-16)
(0 -1.229788476e-15 -2.229242665e-16)
(0 -1.090072429e-15 -2.014559766e-16)
(0 -9.640841388e-16 -1.817973198e-16)
(0 -8.506135772e-16 -1.639137305e-16)
(0 -7.484861865e-16 -1.47745875e-16)
(0 -6.565758292e-16 -1.332180044e-16)
(0 -5.738128145e-16 -1.202446556e-16)
(0 -4.991880305e-16 -1.087359337e-16)
(0 -4.317540505e-16 -9.860160513e-17)
(0 -3.706239282e-16 -8.975421727e-17)
(0 -3.149682615e-16 -8.211144443e-17)
(0 -2.640109849e-16 -7.559784733e-17)
(0 -2.170242667e-16 -7.014623833e-17)
(0 -1.733228743e-16 -6.569890287e-17)
(0 -1.322586503e-16 -6.220913237e-17)
(0 -9.321725979e-17 -5.964415184e-17)
(0 -5.562770036e-17 -5.799238797e-17)
(0 -1.856392261e-17 -5.728435453e-17)
(0 -0.02619188374 -0.001853036847)
(0 -0.02450288952 -0.004597870491)
(0 -0.02191851645 -0.007184134193)
(0 -0.01820553288 -0.009419804153)
(0 -0.01361863334 -0.01119582934)
(0 -0.008572998858 -0.01239824424)
(0 -0.001122104758 -0.01215639479)
(0 3.649131838e-05 -0.000432191863)
(0 -3.837228709e-15 -2.300189085e-18)
(0 -7.630501896e-15 -1.636667597e-16)
(0 -7.517555415e-15 -3.197745302e-16)
(0 -7.35043761e-15 -4.645706379e-16)
(0 -7.125573912e-15 -5.936206903e-16)
(0 -6.850856041e-15 -7.036421098e-16)
(0 -6.535259467e-15 -7.92632151e-16)
(0 -6.188259832e-15 -8.598508391e-16)
(0 -5.819281206e-15 -9.056870355e-16)
(0 -5.437241537e-15 -9.314478662e-16)
(0 -5.050217113e-15 -9.391125262e-16)
(0 -4.665228413e-15 -9.310851753e-16)
(0 -4.288135836e-15 -9.099719181e-16)
(0 -3.923625741e-15 -8.783966085e-16)
(0 -3.575264185e-15 -8.388613322e-16)
(0 -3.245596345e-15 -7.936507846e-16)
(0 -2.936272353e-15 -7.447755362e-16)
(0 -2.648184142e-15 -6.939470341e-16)
(0 -2.38160189e-15 -6.425766233e-16)
(0 -2.136302322e-15 -5.917913374e-16)
(0 -1.911684197e-15 -5.424602445e-16)
(0 -1.706868655e-15 -4.952263973e-16)
(0 -1.52078383e-15 -4.505406942e-16)
(0 -1.352234285e-15 -4.086950788e-16)
(0 -1.199956487e-15 -3.698534322e-16)
(0 -1.062661982e-15 -3.34079229e-16)
(0 -9.390699643e-16 -3.01359553e-16)
(0 -8.279309972e-16 -2.716254327e-16)
(0 -7.28043456e-16 -2.44768688e-16)
(0 -6.382641243e-16 -2.206556133e-16)
(0 -5.575141712e-16 -1.991378907e-16)
(0 -4.84781546e-16 -1.800611386e-16)
(0 -4.19120645e-16 -1.632714927e-16)
(0 -3.596499439e-16 -1.486205838e-16)
(0 -3.055481504e-16 -1.359692383e-16)
(0 -2.560493199e-16 -1.251901911e-16)
(0 -2.104372997e-16 -1.161700639e-16)
(0 -1.680398548e-16 -1.088108237e-16)
(0 -1.28222903e-16 -1.03030849e-16)
(0 -9.038542542e-17 -9.876534213e-17)
(0 -5.395576737e-17 -9.596400568e-17)
(0 -1.801159199e-17 -9.457534199e-17)
(0 -0.0297289503 -0.002731351597)
(0 -0.02779458241 -0.006765002542)
(0 -0.0248577814 -0.01054779368)
(0 -0.02064656339 -0.01382425172)
(0 -0.0154460728 -0.01643312036)
(0 -0.009714224045 -0.01820307279)
(0 -0.001258441101 -0.01781821759)
(0 4.123874979e-05 -0.0006278335393)
(0 -3.935839235e-15 -3.382583935e-18)
(0 -7.823848042e-15 -2.373777217e-16)
(0 -7.699985879e-15 -4.632963463e-16)
(0 -7.516248794e-15 -6.721593362e-16)
(0 -7.2700626e-15 -8.573959046e-16)
(0 -6.970828088e-15 -1.01423563e-15)
(0 -6.629093382e-15 -1.139893851e-15)
(0 -6.255805567e-15 -1.233512946e-15)
(0 -5.861639472e-15 -1.295921878e-15)
(0 -5.456475976e-15 -1.329286136e-15)
(0 -5.049046984e-15 -1.3367156e-15)
(0 -4.646738621e-15 -1.321883938e-15)
(0 -4.255528171e-15 -1.288695531e-15)
(0 -3.880023168e-15 -1.2410189e-15)
(0 -3.523570433e-15 -1.18249188e-15)
(0 -3.188406507e-15 -1.116394211e-15)
(0 -2.875826507e-15 -1.045577687e-15)
(0 -2.586354552e-15 -9.724416509e-16)
(0 -2.319904476e-15 -8.989415991e-16)
(0 -2.075924133e-15 -8.266199e-16)
(0 -1.85352012e-15 -7.566495934e-16)
(0 -1.651562185e-15 -6.89884316e-16)
(0 -1.468768196e-15 -6.269093543e-16)
(0 -1.303771459e-15 -5.680904819e-16)
(0 -1.155172626e-15 -5.136185611e-16)
(0 -1.021578549e-15 -4.635488708e-16)
(0 -9.016303425e-16 -4.178348235e-16)
(0 -7.940227122e-16 -3.763561951e-16)
(0 -6.975163671e-16 -3.389422735e-16)
(0 -6.10945032e-16 -3.053904834e-16)
(0 -5.332183398e-16 -2.754811008e-16)
(0 -4.633216325e-16 -2.489886749e-16)
(0 -4.003134956e-16 -2.256907317e-16)
(0 -3.433216737e-16 -2.053742827e-16)
(0 -2.915378688e-16 -1.878405921e-16)
(0 -2.442118105e-16 -1.729085891e-16)
(0 -2.006448994e-16 -1.604172439e-16)
(0 -1.601836593e-16 -1.502271369e-16)
(0 -1.222131687e-16 -1.42221326e-16)
(0 -8.615041651e-17 -1.363053548e-16)
(0 -5.143770021e-17 -1.324058366e-16)
(0 -1.717525891e-17 -1.304673554e-16)
(0 -0.0346751642 -0.003753085295)
(0 -0.03240354569 -0.009272593147)
(0 -0.02898221124 -0.0144174327)
(0 -0.02408023008 -0.01889060066)
(0 -0.01802106468 -0.02246623874)
(0 -0.01131657559 -0.02489915864)
(0 -0.001444926996 -0.02431346327)
(0 4.778427535e-05 -0.0008477384524)
(0 -4.072830702e-15 -5.196608755e-18)
(0 -8.092121195e-15 -3.202392692e-16)
(0 -7.952337029e-15 -6.238664065e-16)
(0 -7.744537168e-15 -9.033639356e-16)
(0 -7.467650206e-15 -1.149556069e-15)
(0 -7.133353987e-15 -1.355998633e-15)
(0 -6.754536783e-15 -1.51918344e-15)
(0 -6.344287859e-15 -1.638375316e-15)
(0 -5.915054396e-15 -1.715193046e-15)
(0 -5.478035259e-15 -1.753052355e-15)
(0 -5.042814914e-15 -1.756574225e-15)
(0 -4.617208344e-15 -1.731034821e-15)
(0 -4.207270799e-15 -1.681903344e-15)
(0 -3.81742209e-15 -1.614487831e-15)
(0 -3.450639497e-15 -1.533689322e-15)
(0 -3.108682153e-15 -1.443852523e-15)
(0 -2.792319793e-15 -1.348695005e-15)
(0 -2.501548054e-15 -1.251295466e-15)
(0 -2.235780139e-15 -1.154122878e-15)
(0 -1.994010316e-15 -1.059091181e-15)
(0 -1.774948613e-15 -9.676274847e-16)
(0 -1.577128415e-15 -8.807449752e-16)
(0 -1.398989996e-15 -7.99114499e-16)
(0 -1.238943491e-15 -7.231310646e-16)
(0 -1.095414876e-15 -6.52973189e-16)
(0 -9.668782445e-16 -5.88654238e-16)
(0 -8.518772885e-16 -5.300657211e-16)
(0 -7.490384472e-16 -4.7701301e-16)
(0 -6.570777443e-16 -4.292442338e-16)
(0 -5.748029516e-16 -3.864732287e-16)
(0 -5.011123627e-16 -3.48397441e-16)
(0 -4.349911769e-16 -3.147116434e-16)
(0 -3.755062529e-16 -2.851182418e-16)
(0 -3.217998043e-16 -2.593348595e-16)
(0 -2.730824569e-16 -2.370997832e-16)
(0 -2.286259716e-16 -2.181757598e-16)
(0 -1.877558475e-16 -2.023525363e-16)
(0 -1.498439369e-16 -1.894484401e-16)
(0 -1.143011208e-16 -1.793112005e-16)
(0 -8.056993603e-17 -1.718181195e-16)
(0 -4.811776802e-17 -1.66875757e-16)
(0 -1.607311079e-17 -1.644199458e-16)
(0 -0.0412260109 -0.00496483005)
(0 -0.03852286422 -0.01223212444)
(0 -0.03447951212 -0.01896098927)
(0 -0.02867653714 -0.02485085135)
(0 -0.0214770302 -0.02958927787)
(0 -0.01345417219 -0.03282283471)
(0 -0.001689049632 -0.03193598204)
(0 5.614157249e-05 -0.001100426657)
(0 -4.253051367e-15 -7.728692995e-18)
(0 -8.444823286e-15 -4.159713531e-16)
(0 -8.283110545e-15 -8.085560946e-16)
(0 -8.041938457e-15 -1.167860268e-15)
(0 -7.722697297e-15 -1.481451096e-15)
(0 -7.340455458e-15 -1.741005473e-15)
(0 -6.911470065e-15 -1.942454099e-15)
(0 -6.451815174e-15 -2.085602722e-15)
(0 -5.976316511e-15 -2.173416447e-15)
(0 -5.497857154e-15 -2.211152536e-15)
(0 -5.027029451e-15 -2.205492928e-15)
(0 -4.57206774e-15 -2.163778323e-15)
(0 -4.138981181e-15 -2.09339694e-15)
(0 -3.731809146e-15 -2.001342225e-15)
(0 -3.352935125e-15 -1.893927854e-15)
(0 -3.00341219e-15 -1.776634387e-15)
(0 -2.68326945e-15 -1.654057011e-15)
(0 -2.391782425e-15 -1.529924704e-15)
(0 -2.127700191e-15 -1.40716528e-15)
(0 -1.88942874e-15 -1.287996091e-15)
(0 -1.675173914e-15 -1.174025442e-15)
(0 -1.4830492e-15 -1.066354503e-15)
(0 -1.311154286e-15 -9.65673189e-16)
(0 -1.157630149e-15 -8.723464009e-16)
(0 -1.020695799e-15 -7.864889706e-16)
(0 -8.986710816e-16 -7.080290541e-16)
(0 -7.899891145e-16 -6.367605351e-16)
(0 -6.932012249e-16 -5.723854817e-16)
(0 -6.069765857e-16 -5.145479102e-16)
(0 -5.300982391e-16 -4.628601603e-16)
(0 -4.614567545e-16 -4.169231293e-16)
(0 -4.000424333e-16 -3.763415028e-16)
(0 -3.449367118e-16 -3.407349795e-16)
(0 -2.953032151e-16 -3.097463453e-16)
(0 -2.503787691e-16 -2.83047111e-16)
(0 -2.094645636e-16 -2.603412997e-16)
(0 -1.719175797e-16 -2.413678526e-16)
(0 -1.371423235e-16 -2.259020228e-16)
(0 -1.045828481e-16 -2.137560381e-16)
(0 -7.3714973e-17 -2.047792723e-16)
(0 -4.403952656e-17 -1.988582039e-16)
(0 -1.47194478e-17 -1.959166316e-16)
(0 -0.04961643803 -0.006411790665)
(0 -0.04639848038 -0.0157551227)
(0 -0.04160279309 -0.02435357303)
(0 -0.03467596465 -0.03196663536)
(0 -0.02600512758 -0.03815594172)
(0 -0.01622373108 -0.04238735078)
(0 -0.002005856481 -0.04101506453)
(0 6.598771161e-05 -0.001399800268)
(0 -4.483858875e-15 -1.046606785e-17)
(0 -8.895950243e-15 -5.292516754e-16)
(0 -8.704225944e-15 -1.026510689e-15)
(0 -8.417432169e-15 -1.478049564e-15)
(0 -8.040795411e-15 -1.867361485e-15)
(0 -7.59435699e-15 -2.184098873e-15)
(0 -7.099134032e-15 -2.424009143e-15)
(0 -6.575250208e-15 -2.588153736e-15)
(0 -6.040604211e-15 -2.681710524e-15)
(0 -5.51011174e-15 -2.712645279e-15)
(0 -4.9954407e-15 -2.690466548e-15)
(0 -4.505112355e-15 -2.625190734e-15)
(0 -4.044834701e-15 -2.52656743e-15)
(0 -3.617953004e-15 -2.403560614e-15)
(0 -3.225931659e-15 -2.264050088e-15)
(0 -2.868811311e-15 -2.114704682e-15)
(0 -2.54561011e-15 -1.960978155e-15)
(0 -2.254656323e-15 -1.807184819e-15)
(0 -1.993851526e-15 -1.656620711e-15)
(0 -1.760870478e-15 -1.511705219e-15)
(0 -1.553307025e-15 -1.374125979e-15)
(0 -1.368776162e-15 -1.244976267e-15)
(0 -1.204981894e-15 -1.124878846e-15)
(0 -1.059759273e-15 -1.014093559e-15)
(0 -9.310975295e-16 -9.126081596e-16)
(0 -8.171498089e-16 -8.202131841e-16)
(0 -7.162337161e-16 -7.365624281e-16)
(0 -6.268258223e-16 -6.612208856e-16)
(0 -5.475524229e-16 -5.937020786e-16)
(0 -4.771781707e-16 -5.334966103e-16)
(0 -4.145937052e-16 -4.800935937e-16)
(0 -3.588030271e-16 -4.329963977e-16)
(0 -3.089110953e-16 -3.917339363e-16)
(0 -2.641119358e-16 -3.558685172e-16)
(0 -2.236774112e-16 -3.25001086e-16)
(0 -1.869467132e-16 -2.987745329e-16)
(0 -1.533165706e-16 -2.768755994e-16)
(0 -1.222321224e-16 -2.590357992e-16)
(0 -9.317837031e-17 -2.450316872e-16)
(0 -6.567210186e-17 -2.346847484e-16)
(0 -3.92551273e-17 -2.278611647e-16)
(0 -1.313153844e-17 -2.244717057e-16)
(0 -0.06010351908 -0.008127501873)
(0 -0.05632973727 -0.01993431691)
(0 -0.05068934197 -0.03076121277)
(0 -0.04242221403 -0.04053067412)
(0 -0.03188294528 -0.04860904606)
(0 -0.01974496872 -0.05412494342)
(0 -0.002439124417 -0.05190601843)
(0 7.604048941e-05 -0.001776478013)
(0 -4.775262086e-15 -1.220158062e-17)
(0 -9.464718011e-15 -6.664597071e-16)
(0 -9.231908434e-15 -1.290160529e-15)
(0 -8.882789253e-15 -1.850435243e-15)
(0 -8.428746606e-15 -2.325816167e-15)
(0 -7.897103117e-15 -2.703993057e-15)
(0 -7.315524927e-15 -2.981309503e-15)
(0 -6.709516554e-15 -3.161278819e-15)
(0 -6.100808054e-15 -3.252619109e-15)
(0 -5.506613179e-15 -3.267249154e-15)
(0 -4.939574905e-15 -3.218538767e-15)
(0 -4.408168621e-15 -3.119954751e-15)
(0 -3.917351061e-15 -2.984127048e-15)
(0 -3.469291804e-15 -2.822288976e-15)
(0 -3.064079192e-15 -2.644013499e-15)
(0 -2.700340257e-15 -2.457162028e-15)
(0 -2.375749587e-15 -2.267971449e-15)
(0 -2.087424981e-15 -2.081220351e-15)
(0 -1.832220591e-15 -1.900431459e-15)
(0 -1.606934007e-15 -1.728081352e-15)
(0 -1.408444962e-15 -1.565799635e-15)
(0 -1.233802066e-15 -1.414547859e-15)
(0 -1.080271578e-15 -1.27477404e-15)
(0 -9.453594632e-16 -1.146542135e-15)
(0 -8.268154245e-16 -1.029637934e-15)
(0 -7.226253501e-16 -9.236538686e-16)
(0 -6.30996816e-16 -8.280556993e-16)
(0 -5.503408754e-16 -7.422340059e-16)
(0 -4.792523105e-16 -6.655432555e-16)
(0 -4.164897542e-16 -5.973308788e-16)
(0 -3.609565419e-16 -5.369584516e-16)
(0 -3.116827759e-16 -4.83816733e-16)
(0 -2.678088313e-16 -4.373359983e-16)
(0 -2.285703648e-16 -3.969928307e-16)
(0 -1.932847847e-16 -3.623142994e-16)
(0 -1.613390771e-16 -3.328802548e-16)
(0 -1.32178846e-16 -3.083243148e-16)
(0 -1.052984113e-16 -2.883339843e-16)
(0 -8.023179721e-17 -2.726502547e-16)
(0 -5.654445047e-17 -2.610669558e-16)
(0 -3.382648384e-17 -2.534300824e-16)
(0 -1.132998881e-17 -2.496372609e-16)
(0 -0.07293018757 -0.01011141317)
(0 -0.0686659217 -0.02480128998)
(0 -0.0621922718 -0.03830155636)
(0 -0.05242335182 -0.05086071542)
(0 -0.0395273699 -0.06153184562)
(0 -0.02415543647 -0.06876097721)
(0 -0.003125054782 -0.06495864588)
(0 8.278153054e-05 -0.002312630492)
(0 -5.14210522e-15 -1.171011068e-17)
(0 -1.017890565e-14 -8.372758579e-16)
(0 -9.88820148e-15 -1.617197922e-15)
(0 -9.453087808e-15 -2.307669216e-15)
(0 -8.894353225e-15 -2.881431908e-15)
(0 -8.249850325e-15 -3.324712107e-15)
(0 -7.556419794e-15 -3.635931206e-15)
(0 -6.846559814e-15 -3.823017133e-15)
(0 -6.146574545e-15 -3.90023087e-15)
(0 -5.476031398e-15 -3.885193145e-15)
(0 -4.848146298e-15 -3.796488969e-15)
(0 -4.270700636e-15 -3.651969612e-15)
(0 -3.747168926e-15 -3.467705522e-15)
(0 -3.277839454e-15 -3.257463499e-15)
(0 -2.860804711e-15 -3.032561241e-15)
(0 -2.492769261e-15 -2.801966006e-15)
(0 -2.169668432e-15 -2.57253179e-15)
(0 -1.887116332e-15 -2.349299168e-15)
(0 -1.640712528e-15 -2.135807931e-15)
(0 -1.426238655e-15 -1.934392726e-15)
(0 -1.239773532e-15 -1.746446218e-15)
(0 -1.077750567e-15 -1.572643725e-15)
(0 -9.369761706e-16 -1.413129029e-15)
(0 -8.146231667e-16 -1.267664302e-15)
(0 -7.082092626e-16 -1.135748537e-15)
(0 -6.155675746e-16 -1.016709371e-15)
(0 -5.348138535e-16 -9.097730178e-16)
(0 -4.643133784e-16 -8.141165647e-16)
(0 -4.026492957e-16 -7.289063369e-16)
(0 -3.485933669e-16 -6.533254026e-16)
(0 -3.010795595e-16 -5.865927555e-16)
(0 -2.591805737e-16 -5.279762052e-16)
(0 -2.22087193e-16 -4.768005923e-16)
(0 -1.890902369e-16 -4.324525942e-16)
(0 -1.595648353e-16 -3.943831051e-16)
(0 -1.329567286e-16 -3.621079474e-16)
(0 -1.087703001e-16 -3.352074941e-16)
(0 -8.655806233e-17 -3.133256408e-16)
(0 -6.591134176e-17 -2.961684625e-16)
(0 -4.645192954e-17 -2.835028069e-16)
(0 -2.782543238e-17 -2.751550161e-16)
(0 -9.338716914e-18 -2.710099057e-16)
(0 -0.08825812734 -0.01228534913)
(0 -0.08379518051 -0.03024065226)
(0 -0.07673714902 -0.04695864833)
(0 -0.06546647854 -0.06327463535)
(0 -0.04956616564 -0.07773644167)
(0 -0.02955826929 -0.08731693152)
(0 -0.004456808259 -0.08042714321)
(0 7.895578104e-05 -0.003232876756)
(0 -5.605101689e-15 -1.391992903e-17)
(0 -1.107707359e-14 -1.057821418e-15)
(0 -1.070230179e-14 -2.033630773e-15)
(0 -1.014702324e-14 -2.881544791e-15)
(0 -9.445789497e-15 -3.567469534e-15)
(0 -8.651602415e-15 -4.077445037e-15)
(0 -7.813829953e-15 -4.414654669e-15)
(0 -6.973816218e-15 -4.594611035e-15)
(0 -6.162984066e-15 -4.640089435e-15)
(0 -5.402871278e-15 -4.576807398e-15)
(0 -4.706351373e-15 -4.430263399e-15)
(0 -4.079385174e-15 -4.223740872e-15)
(0 -3.522844948e-15 -3.977274337e-15)
(0 -3.034147523e-15 -3.707310191e-15)
(0 -2.6085817e-15 -3.426812726e-15)
(0 -2.240310807e-15 -3.145618253e-15)
(0 -1.923082749e-15 -2.87089828e-15)
(0 -1.650701122e-15 -2.607642883e-15)
(0 -1.417314148e-15 -2.359113353e-15)
(0 -1.217572294e-15 -2.127239273e-15)
(0 -1.046695961e-15 -1.912951742e-15)
(0 -9.004848773e-16 -1.716454008e-15)
(0 -7.752921556e-16 -1.537435683e-15)
(0 -6.679789708e-16 -1.375238689e-15)
(0 -5.758604936e-16 -1.228983379e-15)
(0 -4.966498311e-16 -1.097662645e-15)
(0 -4.284040095e-16 -9.802108319e-16)
(0 -3.694741944e-16 -8.755531606e-16)
(0 -3.184611484e-16 -7.82640294e-16)
(0 -2.741761729e-16 -7.004717464e-16)
(0 -2.356073445e-16 -6.2811103e-16)
(0 -2.018906127e-16 -5.646947836e-16)
(0 -1.722852203e-16 -5.09437603e-16)
(0 -1.461528776e-16 -4.616338757e-16)
(0 -1.22940138e-16 -4.206576064e-16)
(0 -1.02163466e-16 -3.859609654e-16)
(0 -8.339653935e-17 -3.570721066e-16)
(0 -6.625937969e-17 -3.335926592e-16)
(0 -5.040896335e-17 -3.151951871e-16)
(0 -3.55310041e-17 -3.016208347e-16)
(0 -2.133358263e-17 -2.926773117e-16)
(0 -7.184878435e-18 -2.882373206e-16)
(0 -0.1060532257 -0.01441572004)
(0 -0.1021177059 -0.03582548128)
(0 -0.09521491436 -0.05640384265)
(0 -0.08276985001 -0.07803002007)
(0 -0.06282381615 -0.0984125834)
(0 -0.03605349052 -0.1111016106)
(0 -0.007586833561 -0.09818546939)
(0 5.656841216e-05 -0.005132005763)
(0 -6.189778847e-15 -2.71478603e-17)
(0 -1.220931275e-14 -1.352725359e-15)
(0 -1.171192485e-14 -2.577876401e-15)
(0 -1.098692657e-14 -3.617309573e-15)
(0 -1.009025347e-14 -4.429371151e-15)
(0 -9.09703546e-15 -5.002882545e-15)
(0 -8.073585793e-15 -5.35059533e-15)
(0 -7.07199458e-15 -5.50066836e-15)
(0 -6.128770908e-15 -5.48870965e-15)
(0 -5.266205362e-15 -5.351694789e-15)
(0 -4.495079772e-15 -5.124032701e-15)
(0 -3.817711574e-15 -4.835474195e-15)
(0 -3.230738245e-15 -4.51035831e-15)
(0 -2.727377844e-15 -4.167706002e-15)
(0 -2.299112773e-15 -3.82177473e-15)
(0 -1.936854815e-15 -3.482807117e-15)
(0 -1.631693062e-15 -3.157809066e-15)
(0 -1.375331406e-15 -2.851267639e-15)
(0 -1.160308917e-15 -2.565768584e-15)
(0 -9.800770436e-16 -2.30250319e-15)
(0 -8.289882672e-16 -2.061670329e-15)
(0 -7.022345077e-16 -1.842786925e-15)
(0 -5.957608513e-16 -1.644922426e-15)
(0 -5.061708627e-16 -1.46687235e-15)
(0 -4.306332187e-16 -1.307284266e-15)
(0 -3.667950277e-16 -1.164747377e-15)
(0 -3.127043693e-16 -1.037854716e-15)
(0 -2.667428405e-16 -9.252450499e-16)
(0 -2.275678815e-16 -8.256299577e-16)
(0 -1.940641028e-16 -7.378102412e-16)
(0 -1.653025967e-16 -6.606847938e-16)
(0 -1.405071467e-16 -5.932542475e-16)
(0 -1.190262851e-16 -5.346211123e-16)
(0 -1.003102404e-16 -4.839876576e-16)
(0 -8.389192506e-17 -4.406524476e-16)
(0 -6.937122883e-17 -4.040061798e-16)
(0 -5.640199386e-17 -3.735272968e-16)
(0 -4.468114276e-17 -3.487777001e-16)
(0 -3.393951734e-17 -3.29398797e-16)
(0 -2.393405418e-17 -3.151080434e-16)
(0 -1.444191828e-17 -3.056960887e-16)
(0 -4.89872586e-18 -3.010245939e-16)
(0 -0.1259024427 -0.01598853273)
(0 -0.1239647696 -0.0405327933)
(0 -0.1188335182 -0.0657321019)
(0 -0.1060797819 -0.09543997015)
(0 -0.08085965774 -0.1255201734)
(0 -0.04620585161 -0.1416040524)
(0 -0.01624430198 -0.1180320406)
(0 1.633945884e-05 -0.009693701056)
(0 -6.931559031e-15 -6.166905535e-17)
(0 -1.364768239e-14 -1.759711801e-15)
(0 -1.296688601e-14 -3.30770857e-15)
(0 -1.199851799e-14 -4.580294446e-15)
(0 -1.083136247e-14 -5.529703903e-15)
(0 -9.572826593e-15 -6.154042008e-15)
(0 -8.311615768e-15 -6.48413871e-15)
(0 -7.111930538e-15 -6.568750685e-15)
(0 -6.014010496e-15 -6.462398894e-15)
(0 -5.038194329e-15 -6.217252732e-15)
(0 -4.190130779e-15 -5.878725523e-15)
(0 -3.465710783e-15 -5.483791562e-15)
(0 -2.855076754e-15 -5.061002626e-15)
(0 -2.345563943e-15 -4.631400988e-15)
(0 -1.923682814e-15 -4.209789424e-15)
(0 -1.576345143e-15 -3.806039208e-15)
(0 -1.291543272e-15 -3.426272953e-15)
(0 -1.05866064e-15 -3.073857237e-15)
(0 -8.685496991e-16 -2.750195373e-15)
(0 -7.134740392e-16 -2.455338258e-15)
(0 -5.869796961e-16 -2.188441981e-15)
(0 -4.837369746e-16 -1.948102604e-15)
(0 -3.993775802e-16 -1.732595793e-15)
(0 -3.303408104e-16 -1.540044624e-15)
(0 -2.737355206e-16 -1.368534259e-15)
(0 -2.272202813e-16 -1.216187979e-15)
(0 -1.889016828e-16 -1.081215572e-15)
(0 -1.572494364e-16 -9.619422553e-16)
(0 -1.310263397e-16 -8.568240942e-16)
(0 -1.092310089e-16 -7.644542994e-16)
(0 -9.105135084e-17 -6.835634899e-16)
(0 -7.582693116e-17 -6.130161455e-16)
(0 -6.301863039e-17 -5.518048035e-16)
(0 -5.218421293e-17 -4.990430779e-16)
(0 -4.29586601e-17 -4.539582504e-16)
(0 -3.503831532e-17 -4.158839331e-16)
(0 -2.816805968e-17 -3.842531425e-16)
(0 -2.213087985e-17 -3.585920041e-16)
(0 -1.673930666e-17 -3.38514226e-16)
(0 -1.182829582e-17 -3.237164303e-16)
(0 -7.250133077e-18 -3.139743885e-16)
(0 -2.513383567e-18 -3.091401909e-16)
(0 -0.1467374972 -0.0160326828)
(0 -0.1493373452 -0.04234120557)
(0 -0.1490825773 -0.07314524008)
(0 -0.1390322383 -0.1154624436)
(0 -0.1120621704 -0.1601299606)
(0 -0.07511981879 -0.1795810651)
(0 -0.04031154111 -0.1431698162)
(0 -4.075164218e-05 -0.02171654261)
(0 -7.881968277e-15 -1.551162455e-16)
(0 -1.549911515e-14 -2.343488924e-15)
(0 -1.45325075e-14 -4.312752156e-15)
(0 -1.32089219e-14 -5.866227711e-15)
(0 -1.166400103e-14 -6.954945157e-15)
(0 -1.005147027e-14 -7.599353611e-15)
(0 -8.488294469e-15 -7.863138102e-15)
(0 -7.050254764e-15 -7.827808502e-15)
(0 -5.777272955e-15 -7.574916215e-15)
(0 -4.682531991e-15 -7.176233851e-15)
(0 -3.761618602e-15 -6.689867182e-15)
(0 -2.999988677e-15 -6.160001471e-15)
(0 -2.378347671e-15 -5.61849091e-15)
(0 -1.876164643e-15 -5.087130671e-15)
(0 -1.473750993e-15 -4.579961667e-15)
(0 -1.153338343e-15 -4.1053013e-15)
(0 -8.995110911e-16 -3.667396329e-15)
(0 -6.992538259e-16 -3.267699976e-15)
(0 -5.417899382e-16 -2.905822138e-15)
(0 -4.183236518e-16 -2.580215553e-15)
(0 -3.217526135e-16 -2.288658614e-15)
(0 -2.463883191e-16 -2.028586769e-15)
(0 -1.877028717e-16 -1.797314004e-15)
(0 -1.421093296e-16 -1.592176211e-15)
(0 -1.067765728e-16 -1.410620049e-15)
(0 -7.947634067e-17 -1.250254446e-15)
(0 -5.845864598e-17 -1.108877008e-15)
(0 -4.235136228e-17 -9.844839449e-16)
(0 -3.00799257e-17 -8.752695063e-16)
(0 -2.080349848e-17 -7.796190346e-16)
(0 -1.386444285e-17 -6.960984135e-16)
(0 -8.748460297e-18 -6.234417701e-16)
(0 -5.05321743e-18 -5.605386443e-16)
(0 -2.463687364e-18 -5.064214029e-16)
(0 -7.327802034e-19 -4.602533798e-16)
(0 3.338790544e-19 -4.213180265e-16)
(0 8.899351263e-19 -3.890092291e-16)
(0 1.057773735e-18 -3.628228622e-16)
(0 9.360564897e-19 -3.423496041e-16)
(0 6.057833288e-19 -3.272690064e-16)
(0 1.343210368e-19 -3.173447953e-16)
(0 -6.452826293e-20 -3.124213801e-16)
(0 -0.1663683194 -0.0129497537)
(0 -0.1772053517 -0.03765138733)
(0 -0.1881999965 -0.07364985035)
(0 -0.1932125565 -0.1300738469)
(0 -0.1847950989 -0.1912772766)
(0 -0.157148629 -0.2217685015)
(0 -0.09584258922 -0.185155458)
(0 -0.0001607690786 -0.05229428545)
(0 -9.113429632e-15 -4.817649244e-16)
(0 -1.79123132e-14 -3.218826968e-15)
(0 -1.648962479e-14 -5.733315855e-15)
(0 -1.464071099e-14 -7.616574301e-15)
(0 -1.256448837e-14 -8.824280192e-15)
(0 -1.048101954e-14 -9.425200295e-15)
(0 -8.540070659e-15 -9.54125125e-15)
(0 -6.823708652e-15 -9.304477644e-15)
(0 -5.362435845e-15 -8.833291696e-15)
(0 -4.153145295e-15 -8.222968685e-15)
(0 -3.173898399e-15 -7.544569427e-15)
(0 -2.394334511e-15 -6.847906492e-15)
(0 -1.782205954e-15 -6.165867679e-15)
(0 -1.307034699e-15 -5.518697829e-15)
(0 -9.418534431e-16 -4.917645763e-15)
(0 -6.637798049e-16 -4.367822138e-15)
(0 -4.539419479e-16 -3.870320506e-15)
(0 -2.970864491e-16 -3.42373021e-15)
(0 -1.81065276e-16 -3.025181265e-15)
(0 -9.631051574e-17 -2.671045173e-15)
(0 -3.535091251e-17 -2.357391031e-15)
(0 7.607636175e-18 -2.080272024e-15)
(0 3.70329779e-17 -1.835896975e-15)
(0 5.635314404e-17 -1.62072565e-15)
(0 6.818624426e-17 -1.431514636e-15)
(0 7.452275966e-17 -1.265332061e-15)
(0 7.686881854e-17 -1.119553388e-15)
(0 7.635806542e-17 -9.918463671e-16)
(0 7.383857056e-17 -8.801503647e-16)
(0 6.994008391e-17 -7.826533961e-16)
(0 6.512591374e-17 -6.97768902e-16)
(0 5.973283802e-17 -6.241134836e-16)
(0 5.400173675e-17 -5.604862672e-16)
(0 4.810105162e-17 -5.058502304e-16)
(0 4.214471628e-17 -4.593156078e-16)
(0 3.620583529e-17 -4.201253741e-16)
(0 3.032710468e-17 -3.8764273e-16)
(0 2.45287452e-17 -3.613404841e-16)
(0 1.881454914e-17 -3.407922162e-16)
(0 1.317651299e-17 -3.256651058e-16)
(0 7.597493218e-18 -3.15714326e-16)
(0 2.410031637e-18 -3.107789172e-16)
(0 -0.1805235333 -0.004678469576)
(0 -0.203712562 -0.02011963877)
(0 -0.2385544885 -0.05178573454)
(0 -0.2887470186 -0.1095900707)
(0 -0.3338777983 -0.190864483)
(0 -0.3180594819 -0.2680276865)
(0 -0.1987702831 -0.268481579)
(0 -0.0005958342464 -0.1212345243)
(0 -1.065811216e-14 -1.075654016e-15)
(0 -2.101565093e-14 -4.516909982e-15)
(0 -1.893025483e-14 -7.78452174e-15)
(0 -1.629988624e-14 -1.004191157e-14)
(0 -1.347262703e-14 -1.130013608e-14)
(0 -1.076844133e-14 -1.173586527e-14)
(0 -8.367571818e-15 -1.157225653e-14)
(0 -6.342295211e-15 -1.10156742e-14)
(0 -4.695763996e-15 -1.023092482e-14)
(0 -3.393809722e-15 -9.337885664e-15)
(0 -2.386556409e-15 -8.417619777e-15)
(0 -1.621286929e-15 -7.521250525e-15)
(0 -1.049139009e-15 -6.678420479e-15)
(0 -6.27942726e-16 -5.904177977e-15)
(0 -3.228753011e-16 -5.204121635e-15)
(0 -1.060130862e-16 -4.578033673e-15)
(0 4.458083613e-17 -4.022340841e-15)
(0 1.458854151e-16 -3.531723107e-15)
(0 2.108950995e-16 -3.100129285e-15)
(0 2.494665819e-16 -2.72139317e-15)
(0 2.690205353e-16 -2.389587793e-15)
(0 2.75105737e-16 -2.099212333e-15)
(0 2.718435023e-16 -1.845275012e-15)
(0 2.622730089e-16 -1.623313499e-15)
(0 2.486170159e-16 -1.429379533e-15)
(0 2.324849075e-16 -1.260004602e-15)
(0 2.150270481e-16 -1.112157051e-15)
(0 1.970516612e-16 -9.831968237e-16)
(0 1.791130453e-16 -8.708313611e-16)
(0 1.615779642e-16 -7.730745683e-16)
(0 1.446754697e-16 -6.882097048e-16)
(0 1.285341745e-16 -6.147564793e-16)
(0 1.132100357e-16 -5.514422785e-16)
(0 9.870697206e-17 -4.971772843e-16)
(0 8.499207605e-17 -4.510331498e-16)
(0 7.200675689e-17 -4.122248875e-16)
(0 5.967482518e-17 -3.800956308e-16)
(0 4.790828751e-17 -3.541039609e-16)
(0 3.661143479e-17 -3.3381353e-16)
(0 2.568367347e-17 -3.188847527e-16)
(0 1.502050966e-17 -3.090683761e-16)
(0 4.870880615e-18 -3.042007856e-16)
(0 -0.181666977 0.0104524752)
(0 -0.2190789547 0.019773236)
(0 -0.2930127126 0.01870268568)
(0 -0.4190905763 -0.01912128735)
(0 -0.5352569704 -0.1483924339)
(0 -0.5375615448 -0.3460367726)
(0 -0.3629073206 -0.4408325818)
(0 -0.002636886398 -0.260200611)
(0 -1.276871637e-14 -1.830905725e-15)
(0 -2.524158298e-14 -6.496091477e-15)
(0 -2.201462638e-14 -1.0844823e-14)
(0 -1.815632533e-14 -1.34655893e-14)
(0 -1.425844207e-14 -1.459825429e-14)
(0 -1.075314e-14 -1.464595077e-14)
(0 -7.819879596e-15 -1.399644183e-14)
(0 -5.482376939e-15 -1.295526136e-14)
(0 -3.684647306e-15 -1.173704102e-14)
(0 -2.339840251e-15 -1.048017859e-14)
(0 -1.35726326e-15 -9.266880632e-15)
(0 -6.551352125e-16 -8.141128221e-15)
(0 -1.651334062e-16 -7.122432991e-15)
(0 1.672641442e-16 -6.215501131e-15)
(0 3.842908608e-16 -5.416646041e-15)
(0 5.180009895e-16 -4.717858985e-15)
(0 5.923686182e-16 -4.10928993e-15)
(0 6.251251065e-16 -3.580692882e-15)
(0 6.292646608e-16 -3.12221863e-15)
(0 6.142309764e-16 -2.724808537e-15)
(0 5.868299249e-16 -2.380352338e-15)
(0 5.519204173e-16 -2.081712107e-15)
(0 5.129318113e-16 -1.822674928e-15)
(0 4.722486224e-16 -1.597871666e-15)
(0 4.314951417e-16 -1.402683478e-15)
(0 3.917452417e-16 -1.233148074e-15)
(0 3.536765967e-16 -1.085871928e-15)
(0 3.176837557e-16 -9.579512591e-16)
(0 2.83960826e-16 -8.469026192e-16)
(0 2.525617401e-16 -7.506029091e-16)
(0 2.234440027e-16 -6.67238113e-16)
(0 1.965002643e-16 -5.952598189e-16)