/*--------------------------------*- C++ -*----------------------------------*\
  =========                 |
  \\      /  F ield         | OpenFOAM: The Open Source CFD Toolbox
   \\    /   O peration     | Website:  https://openfoam.org
    \\  /    A nd           | Version:  6
     \\/     M anipulation  |
\*---------------------------------------------------------------------------*/
FoamFile
{
    version     2.0;
    format      ascii;
    class       volScalarField;
    location    "0.02";
    object      ViscousDissipation;
}
// * * * * * * * * * * * * * * * * * * * * * * * * * * * * * * * * * * * * * //

dimensions      [1 -1 -3 0 0 0 0];

internalField   nonuniform List<scalar> 
2500
(
2.848163578e-05
0.0001446631508
0.0003171180913
0.000539934496
0.0007391341997
0.001064225237
0.0007475633663
1.939872383e-05
1.294996521e-05
3.516575868e-26
3.626271364e-28
7.16655494e-28
1.16058805e-27
1.628581094e-27
2.070195173e-27
2.444323706e-27
2.723285063e-27
2.893911586e-27
2.956178069e-27
2.920251166e-27
2.802897178e-27
2.624013644e-27
2.403774971e-27
2.160607471e-27
1.909995883e-27
1.66399219e-27
1.4312409e-27
1.217332247e-27
1.025323326e-27
8.563082331e-28
7.099594147e-28
5.849970379e-28
4.795687441e-28
3.915390708e-28
3.186975361e-28
2.588988771e-28
2.101499716e-28
1.70657001e-28
1.388444492e-28
1.133552599e-28
9.303928182e-29
7.69352203e-29
6.42497591e-29
5.433633095e-29
4.66751858e-29
4.085598509e-29
3.656445898e-29
3.357714032e-29
3.178018052e-29
3.310719985e-29
8.821208262e-05
0.0002491315461
0.0004227780457
0.0006462504393
0.0008454317703
0.001185846399
0.0009290821313
0.0001333655835
9.202413915e-05
3.586796918e-26
5.371651345e-28
8.891344978e-28
1.329811886e-27
1.792126443e-27
2.225339208e-27
2.588441851e-27
2.854221751e-27
3.010232944e-27
3.057272169e-27
3.00628909e-27
2.874696049e-27
2.682850673e-27
2.451195177e-27
2.198254475e-27
1.939480967e-27
1.686805299e-27
1.448699665e-27
1.230561326e-27
1.035255316e-27
8.63698184e-28
7.154065537e-28
5.889690603e-28
4.824256664e-28
3.935549044e-28
3.200789745e-28
2.598007996e-28
2.106879295e-28
1.709170384e-28
1.388906805e-28
1.13235622e-28
9.278983875e-29
7.658333562e-29
6.381637631e-29
5.383749933e-29
4.612276573e-29
4.025689089e-29
3.591577079e-29
3.284590934e-29
3.101826737e-29
4.854208603e-29
0.0002153040296
0.0004727102243
0.0006468322612
0.0008709164959
0.001067316586
0.001434268997
0.001319094799
0.0003844749345
0.0002581263826
3.731665331e-26
9.099093766e-28
1.256005213e-27
1.688003297e-27
2.136471973e-27
2.550175224e-27
2.888454012e-27
3.1251904e-27
3.249511713e-27
3.263946536e-27
3.181053909e-27
3.019542967e-27
2.800667882e-27
2.545365673e-27
2.272310122e-27
1.996840248e-27
1.730599426e-27
1.481677008e-27
1.255053091e-27
1.053184044e-27
8.766125887e-28
7.245297275e-28
5.952508208e-28
4.865931294e-28
3.961579752e-28
3.215292976e-28
2.604039098e-28
2.106690486e-28
1.704413092e-28
1.380787446e-28
1.121754287e-28
9.154547649e-29
7.520155574e-29
6.233134636e-29
5.227419887e-29
4.449933513e-29
3.858624973e-29
3.420743201e-29
3.111292227e-29
2.92703605e-29
7.847838605e-29
0.0004366552716
0.0008617487366
0.001035430337
0.001261262173
0.001453670407
0.001866783953
0.001997957531
0.0008196927946
0.0005417084179
3.962328893e-26
1.532485515e-27
1.865581246e-27
2.279299331e-27
2.700778881e-27
3.078433181e-27
3.372565684e-27
3.559106248e-27
3.629858649e-27
3.59014971e-27
3.455037863e-27
3.245167677e-27
2.983062196e-27
2.690287707e-27
2.385615532e-27
2.084092998e-27
1.796825056e-27
1.531237703e-27
1.291615103e-27
1.079747542e-27
8.955782272e-28
7.377822428e-28
6.042460683e-28
4.924401424e-28
3.996915766e-28
3.233715328e-28
2.610142933e-28
2.103845889e-28
1.695077177e-28
1.366743473e-28
1.104292221e-28
8.955059492e-29
7.30252125e-29
6.002211153e-29
4.986730527e-29
4.202058884e-29
3.605511519e-29
3.164007862e-29
2.852653035e-29
2.667790406e-29
1.210413587e-28
0.0007894711015
0.001483616261
0.001657333903
0.001891288948
0.002082937074
0.002571016936
0.00309789143
0.001521392952
0.0009855737107
4.296595086e-26
2.494887121e-27
2.801984699e-27
3.179990172e-27
3.55208643e-27
3.867237941e-27
4.08802174e-27
4.193940829e-27
4.180979586e-27
4.058548415e-27
3.845152451e-27
3.563945422e-27
3.238949669e-27
2.892317131e-27
2.542682087e-27
2.204453425e-27
1.887803211e-27
1.59909857e-27
1.341560891e-27
1.115992144e-27
9.214642302e-28
7.559142361e-28
6.166228627e-28
5.005757336e-28
4.0471996e-28
3.261339983e-28
2.621299541e-28
2.103060059e-28
1.685639186e-28
1.351035645e-28
1.084034715e-28
8.719392501e-29
7.042712823e-29
5.724738272e-29
4.696311068e-29
3.90217456e-29
3.298799069e-29
2.852563931e-29
2.538266821e-29
2.351048377e-29
1.737877201e-28
0.001329809077
0.002442465548
0.002620981612
0.002881833703
0.003086317513
0.003691660371
0.004830219434
0.002620753793
0.001659179824
4.76338705e-26
3.945636351e-27
4.202674239e-27
4.512909663e-27
4.796463735e-27
5.00524524e-27
5.106632762e-27
5.086124703e-27
4.945943189e-27
4.701100605e-27
4.374472661e-27
3.992097559e-27
3.579433281e-27
3.158848248e-27
2.748292422e-27
2.360915054e-27
2.005335183e-27
1.686289137e-27
1.405436413e-27
1.162172657e-27
9.543594338e-28
7.789278151e-28
6.323452339e-28
5.109546221e-28
4.112046861e-28
3.297934493e-28
2.637465069e-28
2.104487191e-28
1.676445766e-28
1.334189692e-28
1.061669693e-28
8.455866925e-29
6.750310063e-29
5.411376506e-29
4.367723777e-29
3.562557263e-29
2.951276625e-29
2.499525695e-29
2.181595196e-29
1.991122044e-29
2.335811906e-28
0.002132545326
0.003885574672
0.004089177874
0.004428224837
0.004687618882
0.005467551472
0.007518005414
0.004319035324
0.002683449663
5.407102316e-26
6.131802952e-27
6.291134538e-27
6.473649698e-27
6.599381417e-27
6.627948144e-27
6.535928227e-27
6.318485123e-27
5.986762365e-27
5.56299768e-27
5.075093485e-27
4.551861295e-27
4.019555574e-27
3.499820381e-27
3.008862017e-27
2.557522138e-27
2.151909916e-27
1.794304808e-27
1.484120412e-27
1.21879776e-27
9.945598053e-28
8.070040268e-28
6.515383074e-28
5.236803462e-28
4.192467438e-28
3.344581287e-28
2.65983852e-28
2.109456557e-28
1.66895404e-28
1.317780362e-28
1.038876124e-28
8.182173432e-29
6.44376742e-29
5.081214982e-29
4.020571609e-29
3.203211356e-29
2.583252474e-29
2.125447375e-29
1.803471357e-29
1.609239238e-29
2.968325364e-28
0.00328408934
0.006004691592
0.006300320154
0.006852588063
0.007285097456
0.008296243832
0.01162608063
0.006914899481
0.004319674677
6.298838686e-26
9.466451826e-27
9.43218862e-27
9.373996486e-27
9.218270415e-27
8.940975101e-27
8.535072289e-27
8.010617431e-27
7.390822371e-27
6.706426959e-27
5.99017644e-27
5.272484678e-27
4.578682495e-27
3.927767958e-27
3.332321691e-27
2.799178896e-27
2.330490361e-27
1.924895116e-27
1.578625284e-27
1.286446967e-27
1.042401614e-27
8.403509773e-28
6.743497421e-28
5.388784443e-28
4.289700983e-28
3.402605264e-28
2.689871738e-28
2.119556584e-28
1.664882525e-28
1.303642638e-28
1.017589566e-28
7.91851596e-29
6.143992207e-29
4.755735303e-29
3.676797862e-29
2.846446284e-29
2.217326697e-29
1.753170336e-29
1.426956714e-29
1.228670629e-29
3.597136387e-28
0.004855758009
0.009018480803
0.009600098388
0.0107128759
0.01163166344
0.01283752897
0.017746227
0.01083448076
0.00731316274
7.551544516e-26
1.465242268e-26
1.42289176e-26
1.371573875e-26
1.30561439e-26
1.225718779e-26
1.133932736e-26
1.033426959e-26
9.280095987e-27
8.215806677e-27
7.17674281e-27
6.191597412e-27
5.281091726e-27
4.458007569e-27
3.728118289e-27
3.091577579e-27
2.544424344e-27
2.079981131e-27
1.690028753e-27
1.365716974e-27
1.098220032e-27
8.791716604e-28
7.009240456e-28
5.566750951e-28
4.405030813e-28
3.473404324e-28
2.7291094e-28
2.136479762e-28
1.666058196e-28
1.293719401e-28
9.998495999e-29
7.686080504e-29
5.872806828e-29
4.457266876e-29
3.359132463e-29
2.515306965e-29
1.876792921e-29
1.406187572e-29
1.075704878e-29
8.732056031e-30
4.183823698e-28
0.006839366952
0.01311379274
0.01449704098
0.0170438996
0.01922685451
0.02009402769
0.0263127175
0.01665476607
0.01426925064
9.339119965e-26
2.288506575e-26
2.1690529e-26
2.03170405e-26
1.875047266e-26
1.705571626e-26
1.529727278e-26
1.353564621e-26
1.182382454e-26
1.020458106e-26
8.709053928e-27
7.356719016e-27
6.156520798e-27
5.108736189e-27
4.207131185e-27
3.4410636e-27
2.797314653e-27
2.261549798e-27
1.819394882e-27
1.457165265e-27
1.1623097e-27
9.23636277e-28
7.313825542e-28
5.771817935e-28
4.539657413e-28
3.558336457e-28
2.779081502e-28
2.161915699e-28
1.674307462e-28
1.289949009e-28
9.876835534e-29
7.505833566e-29
5.651710624e-29
4.207714802e-29
3.089787835e-29
2.232238379e-29
1.584272824e-29
1.10725551e-29
7.725729863e-30
5.657907083e-30
4.692128975e-28
0.009027175926
0.01832067509
0.02179699159
0.02799853675
0.03332913611
0.03134869834
0.0365618694
0.02512332888
0.03591279609
1.195599572e-25
3.626417524e-26
3.354603277e-26
3.053655744e-26
2.732309386e-26
2.407647236e-26
2.092720888e-26
1.796728432e-26
1.525549975e-26
1.28236452e-26
1.068239401e-26
8.826683988e-27
7.240493766e-27
5.900911416e-27
4.781418684e-27
3.854381959e-27
3.092811671e-27
2.471499846e-27
1.967665554e-27
1.561235871e-27
1.234874351e-27
9.738476067e-28
7.657987192e-28
6.004766105e-28
4.694545203e-28
3.658584733e-28
2.841176985e-28
2.197427834e-28
1.69133292e-28
1.294140606e-28
9.829797024e-29
7.397231432e-29
5.500566962e-29
4.027226181e-29
2.889105912e-29
2.017714989e-29
1.360330845e-29
8.76999825e-30
5.382277625e-30
3.271422475e-30
5.090192104e-28
0.01086133407
0.02439103754
0.03315555644
0.04873312573
0.06088110198
0.0479095029
0.04644463875
0.03835774801
0.1280291854
1.593196357e-25
5.867855931e-26
5.285434489e-26
4.668139517e-26
4.043658253e-26
3.447189426e-26
2.900194742e-26
2.413267117e-26
1.989475296e-26
1.627111306e-26
1.321678888e-26
1.067258761e-26
8.574152483e-27
6.857744629e-27
5.463697701e-27
4.338252921e-27
3.434301758e-27
2.711425916e-27
2.135515827e-27
1.678163868e-27
1.315963557e-27
1.029798116e-27
8.041676898e-28
6.265812025e-28
4.870235664e-28
3.774994643e-28
2.916494249e-28
2.244310861e-28
1.718574264e-28
1.307836663e-28
9.873505439e-29
7.376855934e-29
5.436240122e-29
3.932827247e-29
2.774195142e-29
1.888877665e-29
1.222111844e-29
7.325556108e-30
3.897902842e-30
1.743957175e-30
5.352585423e-28
0.01142316791
0.03102296655
0.05244297135
0.09011850466
0.1147792481
0.08173212286
0.06746888323
0.06997360573
0.6420136198
2.218510112e-25
9.747210663e-26
8.516725742e-26
7.275338745e-26
6.083429244e-26
5.004933603e-26
4.067406136e-26
3.27465517e-26
2.617383741e-26
2.080233854e-26
1.645967266e-26
1.297756835e-26
1.020317913e-26
8.003579318e-27
6.266440375e-27
4.898721698e-27
3.824467247e-27
2.982331511e-27
2.323170214e-27
1.807858206e-27
1.405397008e-27
1.091319429e-27
8.463708006e-28
6.554341354e-28
5.066632223e-28
3.907889245e-28
3.005674353e-28
2.303435081e-28
1.757059922e-28
1.332169779e-28
1.00199354e-28
7.457053936e-29
5.471261875e-29
3.937113283e-29
2.757640594e-29
1.85826127e-29
1.182083854e-29
6.863232383e-30
3.396027379e-30
1.198801565e-30
5.462015573e-28
0.009944017359
0.0385427995
0.08752874493
0.1814904825
0.2612221211
0.2230187371
0.2058756244
0.1849538216
3.722113133
3.175587311e-25
1.665900656e-25
1.408649946e-25
1.158519933e-25
9.310041765e-26
7.365382819e-26
5.765515124e-26
4.481159311e-26
3.466605312e-26
2.673755012e-26
2.058567096e-26
1.583434609e-26
1.217523608e-26
9.361875368e-27
7.200463427e-27
5.540232972e-27
4.264702315e-27
3.284268427e-27
2.530182016e-27
1.949765942e-27
1.50267914e-27
1.158026427e-27
8.921367702e-28
6.868620102e-28
5.282769832e-28
4.056873975e-28
3.108728101e-28
2.375088537e-28
1.807260144e-28
1.367724307e-28
1.027559766e-28
7.644683525e-29
5.612629312e-29
4.047091238e-29
2.846385217e-29
1.932708893e-29
1.246979938e-29
7.449326379e-30
3.942098429e-30
1.701108381e-30
5.410572241e-28
0.007902053523
0.05378969985
0.1749810087
0.4456262729
0.6728725271
0.7055032185
0.8834995273
0.6043548587
20.01355325
4.81725252e-25
2.96675032e-25
2.405458657e-25
1.889216852e-25
1.449752319e-25
1.097567895e-25
8.245738425e-26
6.170470637e-26
4.610845377e-26
3.446179327e-26
2.579046824e-26
1.933897903e-26
1.453521801e-26
1.095200881e-26
8.272908183e-27
6.26440567e-27
4.75438766e-27
3.615912683e-27
2.755185628e-27
2.102725719e-27
1.606909889e-27
1.229260201e-27
9.41002791e-28
7.205508964e-28
5.516590036e-28
4.220649171e-28
3.224873335e-28
2.458832001e-28
1.868955623e-28
1.414416091e-28
1.06404305e-28
7.94008665e-29
5.860848002e-29
4.263283951e-29
3.040886477e-29
2.112572793e-29
1.417035713e-29
9.085099549e-30
5.536473172e-30
3.250918372e-30
5.200422917e-28
0.01661405667
0.124564407
0.4382714148
0.9565212835
1.243254528
1.679192044
2.809176002
1.946229601
92.20578622
8.201505829e-25
5.664148625e-25
4.27842005e-25
3.161424487e-25
2.295617335e-25
1.653013248e-25
1.186781326e-25
8.524793148e-26
6.140183131e-26
4.4407926e-26
3.227435043e-26
2.357896188e-26
1.73176139e-26
1.278467685e-26
9.484583337e-27
7.068534613e-27
5.290058457e-27
3.974105422e-27
2.995642219e-27
2.264824403e-27
1.716700964e-27
1.304036346e-27
9.922801645e-28
7.560216039e-28
5.76474984e-28
4.396854113e-28
3.352403044e-28
2.553385114e-28
1.941138115e-28
1.471405277e-28
1.110703316e-28
8.336414127e-29
6.209336715e-29
4.579203797e-29
3.334648888e-29
2.391296374e-29
1.685611862e-29
1.170332056e-29
8.111201332e-30
5.780094865e-30
4.843881884e-28
0.06725387352
0.3330225692
0.8741359472
1.289765153
1.492409282
2.271994388
5.190465319
5.275756369
363.1126715
1.508816187e-24
1.15582275e-24
7.916931577e-25
5.41707082e-25
3.685085251e-25
2.507047038e-25
1.712275206e-25
1.1770183e-25
8.15568013e-26
5.700903496e-26
4.021016256e-26
2.861393859e-26
2.053557896e-26
1.485593254e-26
1.082678866e-26
7.943928305e-27
5.864544466e-27
4.353410494e-27
3.247611409e-27
2.433277284e-27
1.830110623e-27
1.381007159e-27
1.04503045e-27
7.926131905e-28
6.022498502e-28
4.581970196e-28
3.488607436e-28
2.656563465e-28
2.021960247e-28
1.537057268e-28
1.166037386e-28
8.819420611e-29
6.644298533e-29
4.981289685e-29
3.714217195e-29
2.755454418e-29
2.039272739e-29
1.516935281e-29
1.153133546e-29
9.153774989e-30
4.362819098e-28
0.1888106129
0.5954503921
1.066490743
1.365482681
1.638089946
1.535682408
4.262841187
10.05670884
1182.993252
3.032046456e-24
2.453507506e-24
1.505297231e-24
9.431342488e-25
5.958713132e-25
3.806096813e-25
2.4625181e-25
1.615667783e-25
1.075408888e-25
7.260500987e-26
4.969155438e-26
3.444849898e-26
2.416709443e-26
1.714030458e-26
1.227795913e-26
8.874300865e-27
6.466213401e-27
4.745765323e-27
3.505593407e-27
2.604357983e-27
1.944612815e-27
1.458447818e-27
1.098058891e-27
8.294795145e-28
6.283658334e-28
4.771311478e-28
3.629772694e-28
2.765285265e-28
2.108750014e-28
1.608964793e-28
1.227808163e-28
9.367821635e-29
7.145136124e-29
5.449373298e-29
4.159686319e-29
3.185299637e-29
2.458362765e-29
1.92871523e-29
1.560110135e-29
1.317664692e-29
3.787418487e-28
0.2852065781
0.7773826885
1.129618301
0.9399522737
1.559038959
4.140975544
2.119968357
11.08565757
2922.061525
6.625589466e-24
5.367941338e-24
2.912093948e-24
1.651624428e-24
9.611356614e-25
5.732975117e-25
3.502862733e-25
2.190328246e-25
1.399822294e-25
9.12949399e-26
6.066234635e-26
4.099921913e-26
2.81398999e-26
1.958405815e-26
1.380073561e-26
9.834551853e-27
7.078497831e-27
5.140322046e-27
3.762494303e-27
2.773407392e-27
2.05711762e-27
1.534276832e-27
1.149931733e-27
8.656033552e-28
6.540741936e-28
4.959126741e-28
3.771274859e-28
2.875661892e-28
2.198101041e-28
1.68403963e-28
1.293138722e-28
9.954261324e-29
7.685446373e-29
5.957698784e-29
4.645743283e-29
3.655823624e-29
2.918083045e-29
2.381015737e-29
2.007487895e-29
1.76039837e-29
3.154342645e-28
0.4718939935
0.6570618976
1.000665102
0.8500029377
0.2155100344
4.084539842
9.115294303
5.07948643
5128.42876
1.41010794e-23
1.185058429e-23
5.630129861e-24
2.859779618e-24
1.523438878e-24
8.462750602e-25
4.880015202e-25
2.909565837e-25
1.787255312e-25
1.127482645e-25
7.283735596e-26
4.806207308e-26
3.231848595e-26
2.210028608e-26
1.534031225e-26
1.079035771e-26
7.679916419e-27
5.523584395e-27
4.009768052e-27
2.934949498e-27
2.16405804e-27
1.606119321e-27
1.199022606e-27
8.998313714e-28
6.785227512e-28
5.138827689e-28
3.907778664e-28
2.983178689e-28
2.286042399e-28
1.758675806e-28
1.358671513e-28
1.054688058e-28
8.234574084e-29
6.476467599e-29
5.143206521e-29
4.138292589e-29
3.390024735e-29
2.845660617e-29
2.467250909e-29
2.21569356e-29
2.504408108e-28
0.2808243568
0.3496985421
0.5640723125
0.7182127755
0.3472974324
0.8126889351
12.25805359
0.3342878962
6374.704278
3.388132217e-23
2.529883023e-23
1.04663627e-23
4.75515071e-24
2.323488192e-24
1.205865757e-24
6.584457541e-25
3.754955531e-25
2.223305227e-25
1.36020783e-25
8.563650088e-26
5.529032286e-26
3.649780355e-26
2.456797073e-26
1.682504196e-26
1.169902355e-26
8.244794266e-27
5.87993374e-27
4.23777791e-27
3.082933866e-27
2.261552456e-27
1.671417571e-27
1.243590081e-27
9.309308675e-28
7.007995677e-28
5.303342977e-28
4.033538621e-28
3.082961593e-28
2.368282319e-28
1.828977635e-28
1.420785364e-28
1.111140676e-28
8.759641683e-29
6.973822314e-29
5.62097402e-29
4.602167625e-29
3.84406765e-29
3.29283584e-29
2.90979965e-29
2.65411484e-29
1.879918068e-28
0.1361106145
0.1562417355
0.2235667811
0.3248304556
0.3249821821
0.07109950711
9.452409667
2.452677137
5695.337325
1.105680078e-22
4.766478409e-23
1.766118367e-23
7.334452943e-24
3.336268324e-24
1.634234241e-24
8.511995351e-25
4.669131902e-25
2.677014646e-25
1.594485667e-25
9.816185375e-26
6.219528185e-26
4.040891598e-26
2.683721148e-26
1.817020986e-26
1.251196418e-26
8.744826563e-27
6.192597287e-27
4.436394451e-27
3.211108475e-27
2.345641786e-27
1.727586615e-27
1.281883991e-27
9.576661022e-28
7.199907052e-28
5.445579e-28
4.14278449e-28
3.170112657e-28
2.44050953e-28
1.891036882e-28
1.47585499e-28
1.16136162e-28
9.227909603e-29
7.418127054e-29
6.048240586e-29
5.017272034e-29
4.250508546e-29
3.693188063e-29
3.306027985e-29
3.046738612e-29
1.321833089e-28
0.05747896954
0.07089871582
0.09638254267
0.1274647607
0.08928827114
0.378725171
5.887322378
7.494384946
3838.8468
2.595773901e-22
7.51744894e-23
2.625357285e-23
1.029414376e-23
4.446484974e-24
2.082736101e-24
1.044536269e-24
5.551540338e-25
3.100546668e-25
1.806990105e-25
1.092488921e-25
6.818214243e-26
4.374119909e-26
2.874226702e-26
1.928551143e-26
1.317895465e-26
9.151497558e-27
6.445036721e-27
4.595805216e-27
3.313502576e-27
2.412586375e-27
1.772204019e-27
1.3122726e-27
9.788881365e-28
7.352473306e-28
5.558948521e-28
4.230157939e-28
3.240085288e-28
2.498725992e-28
1.941235049e-28
1.520530761e-28
1.202196059e-28
9.609269736e-29
7.780356206e-29
6.396803463e-29
5.356031158e-29
4.582249449e-29
4.01997372e-29
3.629443903e-29
3.367254721e-29
8.669811327e-29
0.01941908217
0.03381883744
0.05180913052
0.1010161011
0.03314106556
0.9183814944
2.787031839
13.04567825
1666.675469
3.042527436e-22
1.032248654e-22
3.46886381e-23
1.309212332e-23
5.452197757e-24
2.472505366e-24
1.206365301e-24
6.266435678e-25
3.434289775e-25
1.970585514e-25
1.176195214e-25
7.26292954e-26
4.618312061e-26
3.012256345e-26
2.008596769e-26
1.365387595e-26
9.439156221e-27
6.622628822e-27
4.707456224e-27
3.384970419e-27
2.459191828e-27
1.803214003e-27
1.333377194e-27
9.936287175e-28
7.458550584e-28
5.63791134e-28
4.291154718e-28
3.289060486e-28
2.539577319e-28
1.976540798e-28
1.552011582e-28
1.231010855e-28
9.878641169e-29
8.036375087e-29
6.64325167e-29
5.595589369e-29
4.816858078e-29
4.251076387e-29
3.858155765e-29
3.593931898e-29
5.455129923e-29
0.003554099358
0.01948730006
0.03289972875
0.1066419877
0.05420377268
1.170004818
1.994866697
16.49700478
209.7869787
1.898673606e-22
1.237481963e-22
4.040622763e-23
1.489693176e-23
6.07423895e-24
2.705298161e-24
1.300275082e-24
6.67162793e-25
3.619847566e-25
2.060126735e-25
1.22142624e-25
7.500715222e-26
4.747751037e-26
3.084898142e-26
2.050472682e-26
1.390110552e-26
9.588290693e-27
6.714391093e-27
4.764990241e-27
3.421719988e-27
2.48311963e-27
1.819118939e-27
1.34419677e-27
1.001186337e-27
7.512969462e-28
5.678461497e-28
4.322520033e-28
3.31428076e-28
2.560643924e-28
1.994770233e-28
1.568282203e-28
1.245914306e-28
1.001803066e-28
8.168892378e-29
6.770832714e-29
5.719608957e-29
4.938313727e-29
4.370712348e-29
3.976548765e-29
3.711274876e-29
3.787965212e-29
0.003554093154
0.01948727858
0.03289971189
0.1066418548
0.05420373027
1.17000469
1.994863821
16.49699601
209.786812
1.898668583e-22
1.237480944e-22
4.040619976e-23
1.48969282e-23
6.074241104e-24
2.705300794e-24
1.300277083e-24
6.671641353e-25
3.619856199e-25
2.06013224e-25
1.22142978e-25
7.500738391e-26
4.747766541e-26
3.084908769e-26
2.05048014e-26
1.390115902e-26
9.588329828e-27
6.714420195e-27
4.765012175e-27
3.421736696e-27
2.483132454e-27
1.819128833e-27
1.34420442e-27
1.001192251e-27
7.513015028e-28
5.678496365e-28
4.322546413e-28
3.314300373e-28
2.560658119e-28
1.99478008e-28
1.568288554e-28
1.245917848e-28
1.001804354e-28
8.168887235e-29
6.770813264e-29
5.719578276e-29
4.93827439e-29
4.370666546e-29
3.976498395e-29
3.711222926e-29
3.779130856e-29
0.01941903011
0.03381874428
0.05180900495
0.1010156763
0.03314081978
0.9183811301
2.787026902
13.04565616
1666.67352
3.042513863e-22
1.032244906e-22
3.468854852e-23
1.309211129e-23
5.452203417e-24
2.472512769e-24
1.206371012e-24
6.266474248e-25
3.434314684e-25
1.970601446e-25
1.176205485e-25
7.262996924e-26
4.618357266e-26
3.01228741e-26
2.008618627e-26
1.365403316e-26
9.439271491e-27
6.622714733e-27
4.70752111e-27
3.385019937e-27
2.459229904e-27
1.803243424e-27
1.333399981e-27
9.936463589e-28
7.45868671e-28
5.63801567e-28
4.291233793e-28
3.289119397e-28
2.53962007e-28
1.976570564e-28
1.5520309e-28
1.231021766e-28
9.87868274e-29
8.03636262e-29
6.643196256e-29
5.595500205e-29
4.81674288e-29
4.250941726e-29
3.858007341e-29
3.593778649e-29
5.428746392e-29
0.05747874369
0.07089838993
0.09638196787
0.1274634196
0.08928616825
0.378723663
5.887312043
7.494366949
3838.839847
2.595755169e-22
7.517394578e-23
2.625343829e-23
1.029412407e-23
4.446492772e-24
2.082747115e-24
1.044544946e-24
5.551599572e-25
3.100585174e-25
1.807014853e-25
1.092504947e-25
6.818319865e-26
4.374191112e-26
2.874275881e-26
1.928585926e-26
1.317920608e-26
9.151682795e-27
6.445175394e-27
4.595910383e-27
3.313583136e-27
2.412648534e-27
1.772252206e-27
1.312310034e-27
9.789172046e-28
7.352698279e-28
5.559121489e-28
4.230289494e-28
3.240183698e-28
2.498797778e-28
1.941285395e-28
1.520563817e-28
1.202215175e-28
9.609348686e-29
7.780345177e-29
6.396720775e-29
5.355892045e-29
4.582066727e-29
4.019758339e-29
3.629205393e-29
3.367007886e-29
8.626235936e-29
0.1361099806
0.1562407939
0.2235649226
0.3248266872
0.3249768802
0.07109725649
9.452381571
2.452678194
5695.325911
1.105665831e-22
4.766418466e-23
1.766102873e-23
7.334428605e-24
3.336277259e-24
1.634247622e-24
8.512102783e-25
4.669205954e-25
2.677063077e-25
1.594516952e-25
9.816389043e-26
6.219663234e-26
4.040983267e-26
2.683784936e-26
1.817066447e-26
1.251229526e-26
8.745072229e-27
6.19278242e-27
4.436535708e-27
3.211217283e-27
2.345726173e-27
1.727652344e-27
1.281935285e-27
9.577061076e-28
7.200218043e-28
5.445819212e-28
4.14296812e-28
3.170250841e-28
2.440611086e-28
1.891108845e-28
1.475903016e-28
1.161390285e-28
9.228039925e-29
7.418131635e-29
6.048144722e-29
5.017096843e-29
4.250271874e-29
3.692905229e-29
3.305712385e-29
3.04641077e-29
1.315815485e-28
0.2808233417
0.3496968639
0.5640691971
0.7182086158
0.3472975384
0.8126805088
12.25802464
0.3342799349
6374.698887
3.388058678e-23
2.52982994e-23
1.046621809e-23
4.755127015e-24
2.323498247e-24
1.205880657e-24
6.58457781e-25
3.755038653e-25
2.223359691e-25
1.360243116e-25
8.56388094e-26
5.529186442e-26
3.649885911e-26
2.456871242e-26
1.682557591e-26
1.169941629e-26
8.245088428e-27
5.880157358e-27
4.237949896e-27
3.083067313e-27
2.261656646e-27
1.671499231e-27
1.243654182e-27
9.309811479e-28
7.008388789e-28
5.303648441e-28
4.033773668e-28
3.08313982e-28
2.368414549e-28
1.829072547e-28
1.420849965e-28
1.111180662e-28
8.75984199e-29
6.973861471e-29
5.620883932e-29
4.601975067e-29
3.843795381e-29
3.292503517e-29
2.909424574e-29
2.653723037e-29
1.872322265e-28
0.4718935265
0.6570612213
1.000664172
0.8500024993
0.2155070881
4.084511232
9.115362249
5.079432322
5128.436768
1.410064145e-23
1.185025059e-23
5.63001664e-24
2.859760285e-24
1.523450607e-24
8.462911544e-25
4.88014297e-25
2.909653219e-25
1.787312218e-25
1.12751947e-25
7.283977406e-26
4.806370032e-26
3.231961198e-26
2.210108693e-26
1.53408961e-26
1.079079248e-26
7.680245875e-27
5.523837541e-27
4.009964661e-27
2.935103411e-27
2.164179192e-27
1.606214994e-27
1.199098245e-27
8.998911126e-28
6.785697835e-28
5.139195788e-28
3.908064136e-28
2.983397114e-28
2.286206259e-28
1.758795172e-28
1.35875456e-28
1.054741465e-28
8.234866704e-29
6.476564275e-29
5.14314528e-29
4.138105552e-29
3.389739392e-29
2.8453009e-29
2.466838052e-29
2.215258787e-29
2.495337821e-28
0.2852071811
0.7773845102
1.129621099
0.9399522086
1.559030905
4.140998861
2.119972367
11.08564892
2922.071346
6.625550823e-24
5.367823655e-24
2.911997974e-24
1.651608333e-24
9.611499957e-25
5.733149822e-25
3.502995011e-25
2.190416063e-25
1.399878514e-25
9.129855488e-26
6.066472574e-26
4.100083448e-26
2.814103217e-26
1.95848755e-26
1.380134071e-26
9.835009199e-27
7.078849228e-27
5.140595487e-27
3.762709118e-27
2.77357731e-27
2.057252638e-27
1.534384391e-27
1.150017473e-27
8.656716165e-28
6.541283627e-28
4.959554208e-28
3.771609347e-28
2.875920442e-28
2.19829741e-28
1.684184997e-28
1.293242221e-28
9.954952707e-29
7.685856256e-29
5.957878923e-29
4.645737211e-29
3.655668384e-29
2.917810606e-29
2.380654187e-29
2.007062399e-29
1.759944947e-29
3.143922298e-28
0.1888114506
0.5954532035
1.066494217
1.365482323
1.638089318
1.535671513
4.262825288
10.05674065
1182.996174
3.03308267e-24
2.453287663e-24
1.505161708e-24
9.431210369e-25
5.958909376e-25
3.806291873e-25
2.462652771e-25
1.615752529e-25
1.075461607e-25
7.260836439e-26
4.969376846e-26
3.445001952e-26
2.41681779e-26
1.714110124e-26
1.227855993e-26
8.874762984e-27
6.466574206e-27
4.746050175e-27
3.505820108e-27
2.604539408e-27
1.944758514e-27
1.458565026e-27
1.098153185e-27
8.295552559e-28
6.284264717e-28
4.77179438e-28
3.630154288e-28
2.765583513e-28
2.108979553e-28
1.609137607e-28
1.227934117e-28
9.368694184e-29
7.145689628e-29
5.449664752e-29
4.159764009e-29
3.185204986e-29
2.458131868e-29
1.92838014e-29
1.559699896e-29
1.317219601e-29
3.775791837e-28
0.06725411974
0.3330245672
0.8741416443
1.289768797
1.492410345
2.27199676
5.190480235
5.275781763
363.1131016
1.507070973e-24
1.154724093e-24
7.915143774e-25
5.417183532e-25
3.685394999e-25
2.507267908e-25
1.712407595e-25
1.177095681e-25
8.156144919e-26
5.701196509e-26
4.021211134e-26
2.861530057e-26
2.05365711e-26
1.48566791e-26
1.08273643e-26
7.944380143e-27
5.864903714e-27
4.353698728e-27
3.24784411e-27
2.433465909e-27
1.830263868e-27
1.381131757e-27
1.045131696e-27
7.92695301e-28
6.02316218e-28
4.582503934e-28
3.489033647e-28
2.656900517e-28
2.022223256e-28
1.537258722e-28
1.166187643e-28
8.820497527e-29
6.645022122e-29
4.981721042e-29
3.714408469e-29
2.755450743e-29
2.03911386e-29
1.516656922e-29
1.15276851e-29
9.149697071e-30
4.350147636e-28
0.01661407505
0.1245648452
0.4382740622
0.9565263632
1.243259116
1.67920218
2.809189633
1.946228874
92.20570638
8.178525822e-25
5.664166602e-25
4.27973831e-25
3.162290945e-25
2.296072684e-25
1.653242665e-25
1.186899435e-25
8.525435819e-26
6.140559409e-26
4.44103065e-26
3.227596658e-26
2.358012408e-26
1.731848669e-26
1.278535296e-26
9.485118507e-27
7.068964506e-27
5.290407216e-27
3.974390205e-27
2.995875715e-27
2.265016287e-27
1.716858794e-27
1.304166133e-27
9.923867502e-28
7.5610893e-28
5.765462816e-28
4.397433436e-28
3.352870751e-28
2.553759499e-28
1.9414344e-28
1.471636161e-28
1.110879419e-28
8.337716484e-29
6.210255602e-29
4.579803161e-29
3.334983724e-29
2.391414714e-29
1.685556487e-29
1.170141943e-29
8.108316162e-30
5.776693116e-30
4.830343024e-28
0.007902059343
0.05378972608
0.1749814104
0.445628027
0.672874686
0.7055061067
0.8835014026
0.6043509875
20.01354297
4.826697989e-25
2.97327967e-25
2.407912038e-25
1.890186593e-25
1.450154718e-25
1.097745847e-25
8.246593875e-26
6.170925795e-26
4.611115311e-26
3.446356252e-26
2.579172488e-26
1.933992494e-26
1.453595848e-26
1.095260337e-26
8.273393339e-27
6.264805537e-27
4.75471923e-27
3.616188562e-27
2.755415547e-27
2.102917405e-27
1.607069607e-27
1.2293931e-27
9.411131425e-28
7.20642268e-28
5.517343853e-28
4.221268215e-28
3.225378746e-28
2.459241582e-28
1.869284373e-28
1.414676651e-28
1.064246084e-28
7.941631904e-29
5.861984732e-29
4.264077665e-29
3.041393899e-29
2.112843903e-29
1.417115552e-29
9.084401746e-30
5.534674174e-30
3.248504106e-30
5.186208002e-28
0.009944021679
0.03854279879
0.08752872928
0.1814905911
0.2612222916
0.2230183548
0.2058751267
0.1849531655
3.722141663
3.186881729e-25
1.669031542e-25
1.409875983e-25
1.159010871e-25
9.312076384e-26
7.366285616e-26
5.765962086e-26
4.481413017e-26
3.46676985e-26
2.673873477e-26
2.058658574e-26
1.583508332e-26
1.217584517e-26
9.362385721e-27
7.200894307e-27
5.540598116e-27
4.265012175e-27
3.284531347e-27
2.530404872e-27
1.94995452e-27
1.502838368e-27
1.15816053e-27
8.922493845e-28
6.86956265e-28
5.283555709e-28
4.057526314e-28
3.109266739e-28
2.375530448e-28
1.807619823e-28
1.368014109e-28
1.02779021e-28
7.646483976e-29
5.614002293e-29
4.048102545e-29
2.847092138e-29
1.933162289e-29
1.247226169e-29
7.45015261e-30
3.941709763e-30
1.699997323e-30
5.395884378e-28
0.0114231645
0.03102295324
0.05244292219
0.09011837962
0.1147790548
0.08173183507
0.0674687195
0.0699736019
0.6420238524
2.220383557e-25
9.753889367e-26
8.519377196e-26
7.276283772e-26
6.083788367e-26
5.005107232e-26
4.067520702e-26
3.274747424e-26
2.617463816e-26
2.080304688e-26
1.646030045e-26
1.297812353e-26
1.02036686e-26
8.004009451e-27
6.266817027e-27
4.899050293e-27
3.824752816e-27
2.982578723e-27
2.32338339e-27
1.808041328e-27
1.405553716e-27
1.091453031e-27
8.464842731e-28
6.555301396e-28
5.067441197e-28
3.908567969e-28
3.006241067e-28
2.303905679e-28
1.75744818e-28
1.332487587e-28
1.00225112e-28
7.459115153e-29
5.472883791e-29
3.938360856e-29
2.758570553e-29
1.858924231e-29
1.182526402e-29
6.865898496e-30