/*--------------------------------*- C++ -*----------------------------------*\
  =========                 |
  \\      /  F ield         | OpenFOAM: The Open Source CFD Toolbox
   \\    /   O peration     | Website:  https://openfoam.org
    \\  /    A nd           | Version:  6
     \\/     M anipulation  |
\*---------------------------------------------------------------------------*/
FoamFile
{
    version     2.0;
    format      ascii;
    class       surfaceScalarField;
    location    "0.08";
    object      alphaPhi0.phase1;
}
// * * * * * * * * * * * * * * * * * * * * * * * * * * * * * * * * * * * * * //

dimensions      [0 3 -1 0 0 0 0];

internalField   nonuniform List<scalar> 
4900
(
-4.500441616e-21
-1.539649761e-20
2.629476711e-21
-7.745533769e-21
3.727389077e-21
-2.144155822e-21
7.410835118e-22
4.576429881e-23
0
0
0
0
-2.271579471e-46
-4.294103674e-45
5.336985085e-18
1.425154757e-18
-6.98465816e-21
3.055925772e-24
-6.925445608e-21
-5.921255934e-23
-6.808283319e-21
-1.171653996e-22
-6.63759702e-21
-1.706932915e-22
-6.419240097e-21
-2.183675626e-22
-6.160213604e-21
-2.590406801e-22
-5.868241815e-21
-2.919894783e-22
-5.551325368e-21
-3.169375993e-22
-5.217332465e-21
-3.340174774e-22
-4.873662169e-21
-3.436982434e-22
-4.526995521e-21
-3.466979163e-22
-4.183136281e-21
-3.438937676e-22
-3.84693341e-21
-3.362405932e-22
-3.522271571e-21
-3.247026855e-22
-3.212113531e-21
-3.102019333e-22
-2.918578425e-21
-2.935819656e-22
-2.643041542e-21
-2.75586624e-22
-2.386243869e-21
-2.568502063e-22
-2.148402428e-21
-2.378966737e-22
-1.929315111e-21
-2.191451524e-22
-1.728456016e-21
-2.009194327e-22
-1.545059136e-21
-1.834596191e-22
-1.378189619e-21
-1.669345532e-22
-1.226802805e-21
-1.514540392e-22
-1.089791862e-21
-1.370802512e-22
-9.660251753e-22
-1.238379665e-22
-8.543748501e-22
-1.117234666e-22
-7.537376571e-22
-1.007120842e-22
-6.630497223e-22
-9.076446325e-23
-5.81296127e-22
-8.183164816e-23
-5.075164447e-22
-7.385914641e-23
-4.408070936e-22
-6.679011321e-23
-3.803212366e-22
-6.056780361e-23
-3.252668286e-22
-5.513742589e-23
-2.74903289e-22
-5.044751565e-23
-2.285371754e-22
-4.64509351e-23
-1.855171393e-22
-4.310559039e-23
-1.452283571e-22
-4.037495716e-23
-1.070865067e-22
-3.822853425e-23
-7.053109635e-23
-3.664249172e-23
-3.501707492e-23
-3.560138924e-23
-3.510461786e-23
-9.365347464e-21
-6.41188362e-21
-3.301345629e-21
-1.338260634e-20
-7.077030637e-23
-4.873834594e-21
2.582937476e-22
-1.680950057e-22
5.466455931e-30
1.681643634e-29
5.450663914e-30
6.073768942e-29
-3.407963398e-19
-1.140341943e-46
-1.725507772e-17
2.762675776e-19
-7.045744718e-21
1.573064395e-24
-6.983386383e-21
-1.215771067e-22
-6.86180406e-21
-2.387607304e-22
-6.685265553e-21
-3.472515052e-22
-6.459909594e-21
-4.437496033e-22
-6.193161014e-21
-5.258216016e-22
-5.89319059e-21
-5.919984272e-22
-5.568407582e-21
-6.417652379e-22
-5.227016811e-21
-6.754589e-22
-4.876666218e-21
-6.941054092e-22
-4.524196136e-21
-6.992303863e-22
-4.175487919e-21
-6.926700689e-22
-3.835400103e-21
-6.764020613e-22
-3.507775029e-21
-6.52406844e-22
-3.195497275e-21
-6.225640573e-22
-2.900586248e-21
-5.885824962e-22
-2.624307738e-21
-5.519596106e-22
-2.367292427e-21
-5.139648011e-22
-2.129652521e-21
-4.756404963e-22
-1.911090587e-21
-4.378154581e-22
-1.710997043e-21
-4.011256209e-22
-1.528534616e-21
-3.660387756e-22
-1.362709412e-21
-3.328803807e-22
-1.212429138e-21
-3.018586383e-22
-1.076549555e-21
-2.730876635e-22
-9.539105491e-22
-2.466081093e-22
-8.433632683e-22
-2.224049906e-22
-7.437897889e-22
-2.004227126e-22
-6.541166325e-22
-1.805774724e-22
-5.73323339e-22
-1.627672958e-22
-5.00447126e-22
-1.468800122e-22
-4.345845084e-22
-1.327994795e-22
-3.748906001e-22
-1.20410354e-22
-3.205766814e-22
-1.096016778e-22
-2.70906497e-22
-1.002695227e-22
-2.251916472e-22
-9.231889559e-23
-1.82786353e-22
-8.566508308e-23
-1.430818147e-22
-8.023458199e-23
-1.055003869e-22
-7.596573851e-23
-6.948999077e-23
-7.280915871e-23
-3.45202851e-23
-7.072767102e-23
-6.969402013e-23
-1.214763542e-20
-3.155824883e-21
-6.024437062e-21
-9.695166792e-21
-9.733832078e-22
-8.361915291e-21
-5.025337236e-23
-1.218573304e-21
-9.472853642e-27
6.367591001e-23
6.398801719e-30
4.923144694e-26
-3.564710411e-19
2.755478498e-31
-7.963465033e-18
-6.726246435e-20
-7.167535484e-21
-9.774824322e-25
-7.10054716e-21
-1.885705176e-22
-6.970278343e-21
-3.690403845e-22
-6.781751494e-21
-5.357949789e-22
-6.541974253e-21
-6.835490114e-22
-6.259335266e-21
-8.084882092e-22
-5.942959082e-21
-9.084076258e-22
-5.602106369e-21
-9.826562927e-22
-5.245670942e-21
-1.031937923e-21
-4.88180037e-21
-1.058024746e-21
-4.517645701e-21
-1.063438897e-21
-4.159229808e-21
-1.051144776e-21
-3.81141428e-21
-1.024281268e-21
-3.477940783e-21
-9.859487644e-22
-3.161523199e-21
-9.390546833e-22
-2.863969708e-21
-8.862135154e-22
-2.586318141e-21
-8.296930542e-22
-2.328972266e-21
-7.713967537e-22
-2.091830663e-21
-7.128722296e-22
-1.87440309e-21
-6.553370589e-22
-1.675911826e-21
-5.997146505e-22
-1.495377263e-21
-5.466746798e-22
-1.331688242e-21
-4.966741533e-22
-1.183658368e-21
-4.499965046e-22
-1.050069928e-21
-4.067871667e-22
-9.297071539e-22
-3.670848443e-22
-8.213805727e-22
-3.30848257e-22
-7.239440401e-22
-2.979784793e-22
-6.363058961e-22
-2.683372235e-22
-5.574354758e-22
-2.4176152e-22
-4.863660176e-22
-2.180752947e-22
-4.221948289e-22
-1.970983359e-22
-3.640814051e-22
-1.786531127e-22
-3.11244052e-22
-1.625698567e-22
-2.629554469e-22
-1.486902687e-22
-2.185374677e-22
-1.368701554e-22
-1.77355544e-22
-1.269812521e-22
-1.388127245e-22
-1.189124371e-22
-1.023436214e-22
-1.125704936e-22
-6.740836672e-23
-1.078805077e-22
-3.34865173e-23
-1.047858803e-22
-1.03247875e-22
-6.297576736e-21
-3.261875384e-21
-8.415658935e-21
-2.463412415e-21
-2.856802649e-21
-7.878370979e-21
-2.049345803e-22
-3.963833022e-21
-1.002085318e-24
3.522280539e-23
-1.002338608e-27
2.185833925e-24
-1.27344054e-19
1.094169961e-26
3.913969678e-18
-3.180185827e-19
-7.355308935e-21
-3.534367258e-24
-7.280984599e-21
-2.628998603e-22
-7.137006533e-21
-5.13029093e-22
-6.929486469e-21
-7.433313805e-22
-6.66690243e-21
-9.461548471e-22
-6.359251425e-21
-1.116166389e-21
-6.017211259e-21
-1.250480285e-21
-5.651396849e-21
-1.348508449e-21
-5.271770361e-21
-1.411607338e-21
-4.88722933e-21
-1.442613802e-21
-4.505367262e-21
-1.445353996e-21
-4.132381792e-21
-1.424188182e-21
-3.773096304e-21
-1.383629488e-21
-3.431059767e-21
-1.328052713e-21
-3.108693365e-21
-1.261493052e-21
-2.807458761e-21
-1.187524511e-21
-2.528029576e-21
-1.109202918e-21
-2.270453828e-21
-1.029057324e-21
-2.034300109e-21
-9.491147692e-22
-1.81878403e-21
-8.709458013e-22
-1.62287414e-21
-7.957208902e-22
-1.445378154e-21
-7.242705432e-22
-1.285011321e-21
-6.57144227e-22
-1.140449224e-21
-5.946650387e-22
-1.0103674e-21
-5.369784573e-22
-8.934700727e-22
-4.840944963e-22
-7.885101044e-22
-4.359232373e-22
-6.943019702e-22
-3.9230414e-22
-6.09729313e-22
-3.530297484e-22
-5.337483501e-22
-3.178645179e-22
-4.653881717e-22
-2.865595012e-22
-4.037487574e-22
-2.588635975e-22
-3.479973581e-22
-2.345320044e-22
-2.973637434e-22
-2.133324351e-22
-2.511346926e-22
-1.95049581e-22
-2.086480091e-22
-1.794882253e-22
-1.692862631e-22
-1.664753365e-22
-1.324704067e-22
-1.558614118e-22
-9.765335255e-23
-1.475212737e-22
-6.431354578e-23
-1.413544754e-22
-3.194841462e-23
-1.372854339e-22
-1.352634721e-22
-1.691457839e-21
-3.066818551e-21
-5.475821372e-21
-2.676681774e-21
-5.458732145e-21
-2.437764701e-21
-1.548799953e-21
-7.414407405e-21
-1.555781516e-23
-1.329852897e-21
-1.877157981e-26
2.445639585e-23
-1.97962928e-19
2.014576155e-25
5.925164656e-18
-1.037149941e-18
-7.615671866e-21
-5.170441201e-24
-7.531067193e-21
-3.475095373e-22
-7.367270596e-21
-6.76836322e-22
-7.132283288e-21
-9.78335007e-22
-6.836899547e-21
-1.241560359e-21
-6.493562373e-21
-1.459530707e-21
-6.11524619e-21
-1.628828924e-21
-5.714509903e-21
-1.749282441e-21
-5.302795935e-21
-1.823364187e-21
-4.889991305e-21
-1.855466406e-21
-4.484223996e-21
-1.851174278e-21
-4.091844957e-21
-1.816625095e-21
-3.717539694e-21
-1.757997416e-21
-3.364517967e-21
-1.681141778e-21
-3.034740096e-21
-1.591342813e-21
-2.729149808e-21
-1.493191107e-21
-2.447894114e-21
-1.390539204e-21
-2.190519124e-21
-1.286517045e-21
-1.956136992e-21
-1.183585625e-21
-1.743563271e-21
-1.083612085e-21
-1.551426541e-21
-9.879538655e-22
-1.378253454e-21
-8.975433982e-22
-1.222532861e-21
-8.129679478e-22
-1.082762694e-21
-7.345415262e-22
-9.574829902e-22
-6.623675068e-22
-8.452980121e-22
-5.963916755e-22
-7.448899707e-22
-5.364461636e-22
-6.550264018e-22
-4.822851053e-22
-5.745628386e-22
-4.336130461e-22
-5.024420786e-22
-3.90107177e-22
-4.376910447e-22
-3.514344249e-22
-3.794160036e-22
-3.172643451e-22
-3.267967128e-22
-2.872786446e-22
-2.790799138e-22
-2.611780527e-22
-2.355724721e-22
-2.386871372e-22
-1.956343732e-22
-2.195575616e-22
-1.586717128e-22
-2.035701846e-22
-1.241297665e-22
-1.905363237e-22
-9.148617657e-23
-1.802984349e-22
-6.024425102e-23
-1.727304054e-22
-2.992632685e-23
-1.677376229e-22
-1.652569806e-22
-1.744647879e-21
-2.662988733e-21
-1.613075109e-21
-2.701648222e-21
-7.715350014e-21
-2.070287553e-21
-3.859861317e-21
-3.43215157e-21
-5.181442862e-23
-4.245341393e-21
-4.40684938e-25
2.774873881e-23
-6.400462421e-19
2.457088199e-24
1.684579076e-18
-2.186457903e-18
-7.959459326e-21
-6.874509214e-24
-7.86032781e-21
-4.466460623e-22
-7.668717099e-21
-8.684576681e-22
-7.395473752e-21
-1.251594678e-21
-7.054852809e-21
-1.582203081e-21
-6.662859711e-21
-1.851550958e-21
-6.235712048e-21
-2.056009053e-21
-5.788613581e-21
-2.196418625e-21
-5.334926051e-21
-2.277094608e-21
-4.885729837e-21
-2.304710605e-21
-4.449705682e-21
-2.287251421e-21
-4.033246511e-21
-2.233142153e-21
-3.640710464e-21
-2.150596142e-21
-3.274741944e-21
-2.047177654e-21
-2.936607644e-21
-1.929549019e-21
-2.626513549e-21
-1.803361528e-21
-2.343884256e-21
-1.673249106e-21
-2.087597038e-21
-1.542889012e-21
-1.856170239e-21
-1.415101166e-21
-1.647909713e-21
-1.291965193e-21
-1.461019011e-21
-1.174940832e-21
-1.293679575e-21
-1.064982622e-21
-1.144106957e-21
-9.626437122e-22
-1.010588405e-21
-8.681664189e-22
-8.915063209e-22
-7.81558956e-22
-7.853512722e-22
-7.026589447e-22
-6.907274364e-22
-6.311849038e-22
-6.063527297e-22
-5.667772276e-22
-5.310553051e-22
-5.090302244e-22
-4.637676754e-22
-4.575167248e-22
-4.035193743e-22
-4.118066345e-22
-3.494288074e-22
-3.714806369e-22
-3.006947444e-22
-3.361400751e-22
-2.565877572e-22
-3.054138761e-22
-2.164418013e-22
-2.789632248e-22
-1.796460532e-22
-2.564845638e-22
-1.456370646e-22
-2.377113768e-22
-1.138912474e-22
-2.224151214e-22
-8.391767424e-23
-2.104055932e-22
-5.525115313e-23
-2.015309439e-22
-2.744552708e-23
-1.956775261e-22
-1.927697038e-22
-1.559352674e-21
-2.026528538e-21
-1.406621625e-21
-2.358072011e-21
-2.119644324e-21
-2.250138619e-21
-5.91431571e-21
-1.917841763e-21
-1.675687059e-21
-4.194443583e-21
-1.097205724e-24
-1.250450318e-21
-9.558333734e-19
9.687829331e-24
-1.57209316e-17
-3.586672328e-18
-8.401653452e-21
-8.74963623e-24
-8.28205176e-21
-5.662527606e-22
-8.0517849e-21
-1.098735168e-21
-7.726038515e-21
-1.577357395e-21
-7.324182531e-21
-1.984080854e-21
-6.867321984e-21
-2.308438669e-21
-6.376143155e-21
-2.547220361e-21
-5.86932289e-21
-2.703276621e-21
-5.362581931e-21
-2.783878476e-21
-4.868312742e-21
-2.799027799e-21
-4.395637451e-21
-2.75997972e-21
-3.950738299e-21
-2.678099215e-21
-3.53732527e-21
-2.564071874e-21
-3.157141553e-21
-2.427428751e-21
-2.810443315e-21
-2.276319189e-21
-2.496419508e-21
-2.117461688e-21
-2.213538258e-21
-1.956210994e-21
-1.959819589e-21
-1.796692459e-21
-1.733041566e-21
-1.641967961e-21
-1.530890126e-21
-1.494209245e-21
-1.351063567e-21
-1.354863687e-21
-1.191341879e-21
-1.224804129e-21
-1.049629707e-21
-1.104459063e-21
-9.239801316e-22
-9.93922367e-22
-8.126049039e-22
-8.930435823e-22
-7.138754349e-22
-8.015006678e-22
-6.263177333e-22
-7.188575436e-22
-5.486035921e-22
-6.446088186e-22
-4.795396564e-22
-5.782139481e-22
-4.180554897e-22
-5.191228439e-22
-3.631913844e-22
-4.667946827e-22
-3.140863912e-22
-4.207113894e-22
-2.699668521e-22
-3.803870158e-22
-2.301355889e-22
-3.453740094e-22
-1.939618083e-22
-3.152671707e-22
-1.60871724e-22
-2.897059352e-22
-1.303398586e-22
-2.683754784e-22
-1.018809603e-22
-2.510070322e-22
-7.50424569e-23
-2.373777131e-22
-4.939735731e-23
-2.273100915e-22
-2.453751604e-23
-2.206716747e-22
-2.173744327e-22
-1.206602226e-21
-8.969108967e-22
-1.29713447e-21
-2.017306036e-21
-1.353487849e-21
-2.051764818e-21
-2.653477521e-21
-3.258291105e-21
-3.058536433e-21
-3.851058245e-21
7.938801658e-25
-1.418018793e-21
-1.02419346e-18
8.550231384e-25
-2.282787689e-17
-4.60984744e-18
-8.963173088e-21
-1.115188126e-23
-8.814423124e-21
-7.150077422e-22
-8.530317027e-21
-1.382851909e-21
-8.132709654e-21
-1.974981106e-21
-7.648524269e-21
-2.468288036e-21
-7.106117879e-21
-2.850872236e-21
-6.532235709e-21
-3.121135025e-21
-5.949974692e-21
-3.285575386e-21
-5.377787474e-21
-3.356108621e-21
-4.829321441e-21
-3.347541856e-21
-4.313810338e-21
-3.275543851e-21
-3.836758586e-21
-3.1552089e-21
-3.400722874e-21
-3.000170313e-21
-3.006065571e-21
-2.822153459e-21
-2.651612579e-21
-2.63084414e-21
-2.335189436e-21
-2.433961212e-21
-2.054035031e-21
-2.237446065e-21
-1.80510595e-21
-2.045706348e-21
-1.585290088e-21
-1.861872625e-21
-1.391548933e-21
-1.688043044e-21
-1.221006153e-21
-1.525502795e-21
-1.070997285e-21
-1.37491285e-21
-9.390922603e-22
-1.236467301e-21
-8.23099739e-22
-1.110021296e-21
-7.210598111e-22
-9.951929439e-22
-6.312297859e-22
-8.914429826e-22
-5.520663074e-22
-7.981359961e-22
-4.822059728e-22
-7.145866388e-22
-4.204458496e-22
-6.400938954e-22
-3.657247395e-22
-5.739659427e-22
-3.171056626e-22
-5.155377388e-22
-2.73759781e-22
-4.641830666e-22
-2.349518206e-22
-4.19322414e-22
-2.000269482e-22
-3.80427788e-22
-1.683989995e-22
-3.470253205e-22
-1.39539924e-22
-3.186963334e-22
-1.129702984e-22
-2.950773753e-22
-8.825075451e-23
-2.758596232e-22
-6.497417309e-23
-2.607879451e-22
-4.275850048e-23
-2.496598458e-22
-2.124005456e-23
-2.423244611e-22
-2.386817175e-22
-5.990302342e-22
-2.220891001e-22
-9.259242192e-22
-1.193769842e-21
-1.869750008e-21
-1.83265792e-21
-2.660136604e-21
-1.819588769e-21
-1.662724245e-21
-5.037819607e-21
-3.577826236e-24
-2.301587793e-21
-6.58401624e-19
-5.797575174e-24
-1.736891891e-17
-4.510899342e-18
-9.673267797e-21
-1.448319478e-23
-9.482115266e-21
-9.061652926e-22
-9.122330799e-21
-1.742647025e-21
-8.625957083e-21
-2.471371167e-21
-8.031100419e-21
-3.063166508e-21
-7.376413075e-21
-3.505586768e-21
-6.696735552e-21
-3.800845055e-21
-6.020581875e-21
-3.961766826e-21
-5.369298979e-21
-4.007434462e-21
-4.757398851e-21
-3.959490027e-21
-4.193543511e-21
-3.839452241e-21
-3.681778596e-21
-3.667031768e-21
-3.22275443e-21
-3.45925723e-21
-2.814794835e-21
-3.230180484e-21
-2.454759351e-21
-2.990951608e-21
-2.138696324e-21
-2.750100648e-21
-1.862310967e-21
-2.513912117e-21
-1.621282719e-21
-2.286819435e-21
-1.411466935e-21
-2.071777242e-21
-1.229011991e-21
-1.870590664e-21
-1.070417182e-21
-1.684193965e-21
-9.325510138e-22
-1.512878905e-21
-8.126443491e-22
-1.356477213e-21
-7.082686937e-22
-1.214503393e-21
-6.173066754e-22
-1.086264431e-21
-5.37919375e-22
-9.709426082e-22
-4.685134473e-22
-8.676569339e-22
-4.077097723e-22
-7.75507836e-22
-3.543145734e-22
-6.936089552e-22
-3.072934062e-22
-6.211091355e-22
-2.657480943e-22
-5.572070668e-22
-2.288964896e-22
-5.011605038e-22
-1.960548263e-22
-4.522915521e-22
-1.666223883e-22
-4.099891691e-22
-1.400681958e-22
-3.737097507e-22
-1.159194224e-22
-3.429764658e-22
-9.375127121e-23
-3.173778337e-22
-7.317806435e-23
-2.965659128e-22
-5.384531977e-23
-2.802543755e-22
-3.542261563e-23
-2.682166665e-22
-1.759706161e-23
-2.602843902e-22
-2.563460271e-22
-3.14218812e-23
-6.675319197e-24
-5.976667532e-22
-4.380457334e-22
-7.477852978e-22
-1.150909947e-21
-2.849948084e-21
-1.448688315e-21
-2.013097343e-21
-2.870013155e-21
-9.107703301e-24
-5.22560817e-21
5.287285623e-24
-5.526080774e-22
-1.421931158e-17
-3.148660944e-18
-1.05725522e-20
-1.730094439e-23
-1.031836505e-20
-1.160357464e-21
-9.850909159e-21
-2.210113574e-21
-9.217690163e-21
-3.104606515e-21
-8.47353163e-21
-3.807346856e-21
-7.671735343e-21
-4.307410253e-21
-6.857752593e-21
-4.614860325e-21
-6.066357602e-21
-4.753199594e-21
-5.321462044e-21
-4.752372982e-21
-4.637459551e-21
-4.643540581e-21
-4.021208136e-21
-4.455756726e-21
-3.474074288e-21
-4.214223593e-21
-2.993733418e-21
-3.939660874e-21
-2.575608601e-21
-3.648372756e-21
-2.21393981e-21
-3.35269241e-21
-1.902529961e-21
-3.061586932e-21
-1.63523306e-21
-2.781289742e-21
-1.406249555e-21
-2.515887809e-21
-1.210285032e-21
-2.267830629e-21
-1.042616756e-21
-2.038351647e-21
-8.991012846e-22
-1.82780583e-21
-7.761468982e-22
-1.63593321e-21
-6.706670686e-22
-1.462060323e-21
-5.800256462e-22
-1.305251293e-21
-5.019804507e-22
-1.164419131e-21
-4.346292057e-22
-1.038406214e-21
-3.763599201e-22
-9.260412658e-22
-3.25806638e-22
-8.261786768e-22
-2.818107492e-22
-7.377247416e-22
-2.433876281e-22
-6.596543191e-22
-2.096981433e-22
-5.910206048e-22
-1.800244841e-22
-5.309600327e-22
-1.537497264e-22
-4.786938216e-22
-1.303405867e-22
-4.335272888e-22
-1.093328545e-22
-3.948477574e-22
-9.031905126e-23
-3.621216646e-22
-7.293791928e-23
-3.348913093e-22
-5.686539468e-23
-3.127715563e-22
-4.180676909e-23
-2.954467226e-22
-2.748978202e-23
-2.826678055e-22
-1.365842089e-23
-2.742501616e-22
-2.700717138e-22
2.424349628e-23
-0
-8.816032932e-23
-6.038000561e-23
-4.506606656e-22
-5.852266613e-22
-9.552246757e-22
-1.219673545e-21
-3.080377832e-21
-1.435217861e-21
-4.356387459e-22
-1.128092221e-21
3.722098929e-20
-4.561905309e-22
-1.4913201e-17
-1.216489046e-16
-1.172271362e-20
-1.049794034e-22
-1.136779751e-20
-1.515278587e-21
-1.074521979e-20
-2.832701951e-21
-9.92037578e-21
-3.929466885e-21
-8.97364512e-21
-4.754099338e-21
-7.979302686e-21
-5.301779895e-21
-6.99624138e-21
-5.597954163e-21
-6.065686631e-21
-5.683792135e-21
-5.212774803e-21
-5.605327788e-21
-4.449801634e-21
-5.40656183e-21
-3.779778558e-21
-5.125832892e-21
-3.199593066e-21
-4.794467083e-21
-2.702506956e-21
-4.436809781e-21
-2.279973088e-21
-4.070974104e-21
-1.922865501e-21
-3.709872033e-21
-1.622253211e-21
-3.362275686e-21
-1.369843381e-21
-3.033780323e-21
-1.158198549e-21
-2.727617538e-21
-9.808078323e-22
-2.44531024e-21
-8.320696449e-22
-2.187182574e-21
-7.07225303e-22
-1.952746598e-21
-6.02269337e-22
-1.740989129e-21
-5.138526077e-22
-1.550580368e-21
-4.391877e-22
-1.380022712e-21
-3.759616814e-22
-1.227754689e-21
-3.222585324e-22
-1.09222176e-21
-2.764918654e-22
-9.719230147e-22
-2.373475795e-22
-8.654405575e-22
-2.037355949e-22
-7.714566602e-22
-1.747495978e-22
-6.887624154e-22
-1.496336789e-22
-6.162606138e-22
-1.277548011e-22
-5.529648171e-22
-1.085801315e-22
-4.979960399e-22
-9.165838859e-23
-4.505780486e-22
-7.660447404e-23
-4.100319833e-22
-6.3086771e-23
-3.757707999e-22
-5.081658845e-23
-3.472938718e-22
-3.953931652e-23
-3.241819832e-22
-2.90269291e-23
-3.060928675e-22
-1.9071528e-23
-2.927573942e-22
-9.479669427e-24
-2.839764659e-22
-2.796186666e-22
0
0
7.662993163e-23
1.325877697e-24
-2.100120604e-22
-1.43112894e-22
-4.459188314e-22
-7.123252017e-22
-5.334236058e-22
-1.073751089e-21
-1.878103447e-22
-1.198906701e-21
-6.433076198e-16
-8.012277765e-22
-1.267974452e-17
-1.230872141e-15
-1.314443233e-20
-1.123125173e-22
-1.268458337e-20
-1.975132569e-21
-1.184172687e-20
-3.675569112e-21
-1.074498371e-20
-5.026226418e-21
-9.52145246e-21
-5.977652418e-21
-8.27568242e-21
-6.547577152e-21
-7.082309234e-21
-6.791359892e-21
-5.987442092e-21
-6.778697084e-21
-5.014200417e-21
-6.578612456e-21
-4.169229259e-21
-6.251581085e-21
-3.448534442e-21
-5.846580817e-21
-2.842026318e-21
-5.401033225e-21
-2.336735838e-21
-4.942163081e-21
-1.918914885e-21
-4.48886256e-21
-1.57529714e-21
-4.053561839e-21
-1.293774016e-21
-3.6438753e-21
-1.063688221e-21
-3.263946898e-21
-8.758928805e-22
-2.915497805e-21
-7.226777356e-22
-2.598614308e-21
-5.976286111e-22
-2.312324467e-21
-4.954611918e-22
-2.055010474e-21
-4.118530942e-22
-1.824697211e-21
-3.432871499e-22
-1.61924966e-21
-2.869119086e-22
-1.436504498e-21
-2.40421252e-22
-1.274354918e-21
-2.019527014e-22
-1.130802741e-21
-1.700028228e-22
-1.00398801e-21
-1.433576404e-22
-8.922033702e-22
-1.210358664e-22
-7.938984039e-22
-1.022428662e-22
-7.076775508e-22
-8.633348902e-23
-6.322941172e-22
-7.278214432e-23
-5.666421046e-22
-6.115874721e-23
-5.097470221e-22
-5.110938917e-23
-4.607564599e-22
-4.234078846e-23
-4.189309316e-22
-3.460774767e-23
-3.83635309e-22
-2.770298908e-23
-3.543310464e-22
-2.144885571e-23
-3.305693073e-22
-1.56904607e-23
-3.119850555e-22
-1.028994283e-23
-2.98292135e-22
-5.121543695e-24
-2.892793458e-22
-2.848075111e-22
-3.71799162e-127
-8.21318955e-129
9.435653655e-24
7.535523478e-25
-3.38777759e-24
3.671301217e-26
-2.795315211e-22
-3.203786811e-22
-4.545998417e-22
-8.536210644e-22
-1.449364445e-22
-1.103158113e-21
-3.014199616e-15
-7.371541979e-22
-1.739602401e-17
-2.201607514e-16
-1.504608575e-20
-7.909309614e-23
-1.438429369e-20
-2.63692966e-21
-1.319213626e-20
-4.867737209e-21
-1.169649753e-20
-6.521881515e-21
-1.009165324e-20
-7.582518548e-21
-8.519813083e-21
-8.119444537e-21
-7.069991177e-21
-8.241214352e-21
-5.787659626e-21
-8.061066454e-21
-4.687413824e-21
-7.678901266e-21
-3.764416053e-21
-7.17462697e-21
-3.003122965e-21
-6.607927033e-21
-2.383250644e-21
-6.020963585e-21
-1.883497486e-21
-5.44197908e-21
-1.483652256e-21
-4.888775317e-21
-1.16563134e-21
-4.371654841e-21
-9.13854238e-22
-3.895728916e-21
-7.152395748e-22
-3.462642367e-21
-5.59004538e-22
-3.071817795e-21
-4.363798167e-22
-2.721327982e-21
-3.403047523e-22
-2.40849233e-21
-2.651372614e-22
-2.130274453e-21
-2.063947338e-22
-1.883539754e-21
-1.6053146e-22
-1.665216314e-21
-1.24752343e-22
-1.472390193e-21
-9.685977984e-23
-1.302357088e-21
-7.512943755e-23
-1.152645548e-21
-5.821043375e-23
-1.021022165e-21
-4.504569914e-23
-9.054857695e-22
-3.480878233e-23
-8.042553252e-22
-2.685390468e-23
-7.157545986e-22
-2.067660585e-23
-6.385955774e-22
-1.588280144e-23
-5.715618871e-22
-1.216448891e-23
-5.135929551e-22
-9.280686351e-24
-4.637693511e-22
-7.042474175e-24
-4.212995266e-22
-5.301241676e-24
-3.855080451e-22
-3.939425465e-24
-3.558253137e-22
-2.863173662e-24
-3.317787848e-22
-1.996484614e-24
-3.129855723e-22
-1.276457975e-24
-2.991464192e-22
-6.49363546e-25
-2.900409554e-22
-2.855241921e-22
0
0
6.59846168e-48
-2.305442526e-42
4.299943844e-23
1.614494146e-23
-1.405672703e-22
-3.567254322e-23
-3.841893989e-22
-4.561544164e-22
-3.050765073e-22
-9.614292706e-22
-1.68153788e-16
-6.444525861e-22
-3.13280221e-17
-3.975134098e-17
-1.771944076e-20
-4.317786265e-22
-1.66146202e-20
-3.74175524e-21
-1.484619602e-20
-6.636172059e-21
-1.275748211e-20
-8.610611802e-21
-1.062912084e-20
-9.710901662e-21
-8.642148349e-21
-1.010644427e-20
-6.890342378e-21
-9.993052889e-21
-5.405893794e-21
-9.545552868e-21
-4.183437886e-21
-8.901400197e-21
-3.197926932e-21
-8.160186053e-21
-2.416300761e-21
-7.389606348e-21
-1.804355189e-21
-6.632967214e-21
-1.330345276e-21
-5.916051854e-21
-9.665573717e-22
-5.252630769e-21
-6.897136692e-22
-4.648570652e-21
-4.807648268e-22
-4.104754297e-21
-3.244053873e-22
-3.619082637e-21
-2.085013393e-22
-3.187806822e-21
-1.235289965e-22
-2.806389305e-21
-6.207121297e-23
-2.47004294e-21
-1.838721244e-23
-2.17405497e-21
1.194326845e-23
-1.91397028e-21
3.230817611e-23
-1.685684631e-21
4.529311354e-23
-1.485481738e-21
5.286292183e-23
-1.310036534e-21
5.650394719e-23
-1.15639907e-21
5.733486388e-23
-1.021968266e-21
5.61926233e-23
-9.044612265e-22
5.369888177e-23
-8.018816215e-22
5.031119624e-23
-7.124891168e-22
4.636238535e-23
-6.347709616e-22
4.209072604e-23
-5.674162398e-22
3.766307147e-23
-5.09292955e-22
3.319251411e-23
-4.594279164e-22
2.87518543e-23
-4.169892837e-22
2.438385165e-23
-3.8127158e-22
2.010901718e-23
-3.516829641e-22
1.593153459e-23
-3.277345616e-22
1.184376998e-23
-3.09031669e-22
7.829730532e-24
-2.952666706e-22
3.867759261e-24
-2.862135324e-22
-2.817237661e-22
3.279435958e-32
2.218565179e-33
1.563218394e-32
3.411658426e-33
2.825305304e-32
1.044991174e-32
-8.907331227e-25
2.7595645e-23
-2.411908139e-22
-1.186951944e-22
-2.02604963e-22
-4.911817456e-22
-2.408445824e-17
-3.188201337e-22
-2.914877574e-17
-2.042637116e-17
-2.129969567e-20
-8.767639891e-22
-1.950831763e-20
-5.533138309e-21
-1.682086181e-20
-9.323638557e-21
-1.3858616e-20
-1.157287399e-20
-1.102564079e-20
-1.254389873e-20
-8.529630258e-21
-1.260248205e-20
-6.443529313e-21
-1.207918641e-20
-4.762239018e-21
-1.122688101e-20
-3.442562275e-21
-1.022111998e-20
-2.427563848e-21
-9.175232624e-21
-1.659790635e-21
-8.157432722e-21
-1.087508764e-21
-7.20530716e-21
-6.669535912e-22
-6.336669906e-21
-3.625017219e-22
-5.557150205e-21
-1.458868595e-22
-4.865257644e-21
4.925545606e-24
-4.255643263e-21
1.068930905e-22
-3.721131036e-21
1.729400946e-22
-3.25393883e-21
2.128409162e-22
-2.846379131e-21
2.339390211e-22
-2.491233898e-21
2.417179883e-22
-2.18193048e-21
2.402474904e-22
-1.912599855e-21
2.325276877e-22
-1.678068267e-21
2.20753062e-22
-1.47381375e-21
2.065133858e-22
-1.295906525e-21
1.909461622e-22
-1.140944374e-21
1.748518813e-22
-1.005989199e-21
1.58780927e-22
-8.885080009e-22
1.430989476e-22
-7.863197113e-22
1.280359038e-22
-6.975483083e-22
1.137227652e-22
-6.2058205e-22
1.002188751e-22
-5.540383938e-22
8.753226791e-23
-4.967340343e-22
7.563467298e-23
-4.476594762e-22
6.447251619e-23
-4.05957576e-22
5.397491106e-23
-3.709055445e-22
4.405939253e-23
-3.418999626e-22
3.463596474e-23
-3.184444252e-22
2.56098982e-23
-3.001394956e-22
1.688361093e-23
-2.866747058e-22
8.357893384e-24
-2.778223946e-22
-2.734332208e-22
1.758116255e-33
1.243087915e-34
4.242275199e-28
9.721504382e-29
1.084525595e-28
4.677186127e-29
1.743231884e-23
9.704253386e-24
-5.623965373e-23
1.078749732e-23
-6.910131588e-23
-1.437232094e-22
-1.315146916e-17
-7.179541259e-23
-1.234364187e-17
-5.343447696e-17
-2.648793564e-20
-1.824780567e-21
-2.329877092e-20
-8.722308059e-21
-1.90714055e-20
-1.355101465e-20
-1.483146503e-20
-1.581283084e-20
-1.108587502e-20
-1.62895106e-20
-8.007598392e-21
-1.568078593e-20
-5.592101692e-21
-1.449471569e-20
-3.757044845e-21
-1.30619757e-20
-2.397016234e-21
-1.158119163e-20
-1.409952093e-21
-1.016234492e-20
-7.077543119e-22
-8.859683678e-21
-2.188997822e-22
-7.694219781e-21
1.125734697e-22
-6.668206056e-21
3.294175165e-22
-5.774061838e-21
4.637633529e-22
-4.99967563e-21
5.394766469e-22
-4.331433138e-21
5.741237067e-22
-3.755858972e-21
5.80535863e-22
-3.260436013e-21
5.680189964e-22
-2.833951293e-21
5.432717718e-22
-2.466579551e-21
5.110744718e-22
-2.149829749e-21
4.748016799e-22
-1.876427163e-21
4.368018469e-22
-1.6401719e-21
3.986772925e-22
-1.435795861e-21
3.614902227e-22
-1.258829151e-21
3.259139977e-22
-1.105480704e-21
2.923439815e-22
-9.72534426e-22
2.609785937e-22
-8.572603706e-22
2.318784069e-22
-7.573396228e-22
2.050090725e-22
-6.708012387e-22
1.802723361e-22
-5.959695703e-22
1.575282804e-22
-5.314204119e-22
1.366111103e-22
-4.759445807e-22
1.17340186e-22
-4.285177367e-22
9.952756374e-23
-3.882754328e-22
8.298297421e-23
-3.544925547e-22
6.751692647e-23
-3.265664618e-22
5.294244618e-23
-3.040032661e-22
3.907582589e-23
-2.864067981e-22
2.573666867e-23
-2.734699006e-22
1.27474368e-23
-2.649677718e-22
-2.607531456e-22
5.351157962e-57
3.460961244e-58
3.351213935e-28
4.640469545e-29
1.387844578e-28
4.769674121e-29
2.174640558e-32
7.955007604e-33
2.258783353e-23
2.71534725e-23
-8.295930106e-24
-7.438533475e-24
-2.336173146e-17
-2.414015883e-26
1.260384971e-18
-6.631838968e-17
-3.42955156e-20
-4.677655524e-21
-2.813017186e-20
-1.488765683e-20
-2.133711805e-20
-2.034407915e-20
-1.531163881e-20
-2.183832647e-20
-1.047968982e-20
-2.112148146e-20
-6.823181999e-21
-1.9337321e-20
-4.160355561e-21
-1.715757472e-20
-2.276811331e-21
-1.49455578e-20
-9.784412577e-22
-1.287960476e-20
-1.073962583e-22
-1.103343809e-20
4.576980814e-22
-9.424831206e-21
8.071516844e-22
-8.04373149e-21
1.006778135e-21
-6.86789542e-21
1.10387172e-21
-5.871223025e-21
1.13207317e-21
-5.027949247e-21
1.115113362e-21
-4.314549932e-21
1.069602703e-21
-3.710429208e-21
1.007069689e-21
-3.197988046e-21
9.354331786e-22
-2.762403833e-21
8.600579355e-22
-2.391297207e-21
7.84508048e-22
-2.074376453e-21
7.110832753e-22
-1.803102512e-21
6.41200229e-22
-1.570392343e-21
5.756629524e-22
-1.370365273e-21
5.148547453e-22
-1.198130664e-21
4.588739216e-22
-1.049612461e-21
4.076296281e-22
-9.214054012e-22
3.609091934e-22
-8.106577197e-22
3.184251668e-22
-7.14975721e-22
2.798478598e-22
-6.323462232e-22
2.448275386e-22
-5.610735327e-22
2.130092318e-22
-4.99728206e-22
1.840422752e-22
-4.471053678e-22
1.575861144e-22
-4.02190788e-22
1.333134541e-22
-3.641332789e-22
1.109115358e-22
-3.322222633e-22
9.008210237e-23
-3.058696025e-22
7.054044947e-23
-2.845949615e-22
5.201384699e-23
-2.680141455e-22
3.423953364e-23
-2.558299662e-22
1.696242722e-23
-2.478253011e-22
-2.438580919e-22
0
0
7.384323415e-32
1.297453431e-32
3.826777879e-30
1.124318738e-30
4.034675842e-33
9.846886648e-37
1.049907861e-23
6.738708525e-24
1.596176281e-28
1.952989914e-24
-1.701776316e-17
-6.52833497e-27
6.364266474e-18
-6.574170079e-17
-4.589242633e-20
-1.475056008e-20
-3.359776458e-20
-2.71823236e-20
-2.28401119e-20
-3.110174251e-20
-1.460051348e-20
-3.007794129e-20
-8.698890844e-21
-2.702312596e-20
-4.645254814e-21
-2.33909843e-20
-1.949232098e-21
-1.985363004e-20
-2.112280775e-22
-1.668359969e-20
8.67635815e-22
-1.395851172e-20
1.501260437e-21
-1.166711089e-20
1.838908737e-21
-9.762532706e-21
1.983118081e-21
-8.187998952e-21
2.003579246e-21
-6.888419511e-21
1.947263049e-21
-5.814974445e-21
1.845575417e-21
-4.926333797e-21
1.719322049e-21
-4.188373181e-21
1.582117954e-21
-3.573306026e-21
1.442715781e-21
-3.058670938e-21
1.30659125e-21
-2.626368371e-21
1.177021375e-21
-2.261820251e-21
1.055817395e-21
-1.953269085e-21
9.438228411e-22
-1.691208101e-21
8.412517459e-22
-1.467924758e-21
7.47917937e-22
-1.277138175e-21
6.633899703e-22
-1.113712439e-21
5.870952365e-22
-9.734303301e-22
5.18389275e-22
-8.528147313e-22
4.566012552e-22
-7.489875069e-22
4.010631407e-22