/*--------------------------------*- C++ -*----------------------------------*\
  =========                 |
  \\      /  F ield         | OpenFOAM: The Open Source CFD Toolbox
   \\    /   O peration     | Website:  https://openfoam.org
    \\  /    A nd           | Version:  6
     \\/     M anipulation  |
\*---------------------------------------------------------------------------*/
FoamFile
{
    version     2.0;
    format      ascii;
    class       volVectorField;
    location    "0.08";
    object      gradT;
}
// * * * * * * * * * * * * * * * * * * * * * * * * * * * * * * * * * * * * * //

dimensions      [0 -1 0 1 0 0 0];

internalField   nonuniform List<vector> 
2500
(
(0 -994.5616046 17673.96095)
(0 -2271.175594 15286.61596)
(0 -2325.199784 11733.42201)
(0 -1790.985894 8245.742868)
(0 -1315.26857 5537.725005)
(0 -1046.272369 3441.155013)
(0 -901.1055645 1685.511916)
(0 -438.2525306 61.54830359)
(0 -13.46240958 21.49938354)
(0 -4.369576843 10.05852915)
(0 -2.106508049 4.256138481)
(0 -0.9071552713 1.65025604)
(0 -0.3534009682 0.5993307271)
(0 -0.1274208731 0.2091365722)
(0 -0.04363550546 0.07193282349)
(0 -0.01457616092 0.02489617332)
(0 -0.004866524931 0.008759097451)
(0 -0.001650998881 0.003124565064)
(0 -0.0005713656981 0.001116946913)
(0 -0.0002000437712 0.0003943667759)
(0 -6.982981969e-05 0.0001358219213)
(0 -2.39502801e-05 4.522610073e-05)
(0 -7.976791609e-06 1.448059292e-05)
(0 -2.5605806e-06 4.446734744e-06)
(0 -7.900464529e-07 1.307865928e-06)
(0 -2.363692497e-07 3.680358156e-07)
(0 -6.846849657e-08 9.444417362e-08)
(0 -1.567010952e-08 1.830532314e-08)
(0 -4.376336894e-09 1.929352824e-09)
(0 -5.552771543e-09 -3.952820421e-09)
(0 -1.74112328e-09 -6.776263578e-09)
(0 3.482246561e-09 -5.270427227e-09)
(0 1.364664193e-09 -2.823443158e-10)
(0 -2.164639754e-09 -2.823443158e-09)
(0 -1.788180666e-09 -6.39980449e-09)
(0 3.105787473e-09 -8.564444244e-09)
(0 4.611623824e-09 1.317606807e-09)
(0 2.399926684e-09 3.764590877e-09)
(0 1.411721579e-09 5.223369841e-09)
(0 -3.764590877e-09 2.258754526e-09)
(0 -2.305811912e-09 -7.34095221e-09)
(0 -1.882295438e-09 -3.152844859e-09)
(0 7.529181753e-10 -6.917435736e-09)
(0 6.964493122e-09 -2.823443158e-10)
(0 1.694065895e-09 8.046812999e-09)
(0 1.882295438e-10 6.917435736e-09)
(0 -1.411721579e-10 8.235042543e-09)
(0 -1.599951123e-09 6.164517561e-09)
(0 -6.588034034e-10 6.070402789e-09)
(0 -3.811648263e-09 3.811648263e-09)
(0 -1392.783377 10548.09043)
(0 -3669.363341 10233.18855)
(0 -4715.673312 9079.490731)
(0 -4404.711112 7104.085891)
(0 -3489.319285 4945.461426)
(0 -2805.940719 3148.751373)
(0 -2478.501145 1571.959964)
(0 -1225.760002 58.81940581)
(0 -38.02736486 21.44927017)
(0 -12.87366822 10.31232599)
(0 -6.301765063 4.520844258)
(0 -2.749652483 1.837898006)
(0 -1.0877185 0.7103255475)
(0 -0.3999770306 0.2682244597)
(0 -0.1406048935 0.101251842)
(0 -0.04859756507 0.03865597683)
(0 -0.01690508337 0.01489290828)
(0 -0.00599115161 0.005721784027)
(0 -0.00215883259 0.002160566514)
(0 -0.000781081315 0.0007921087428)
(0 -0.0002793108084 0.0002796241636)
(0 -9.739100124e-05 9.459245144e-05)
(0 -3.280257437e-05 3.059501828e-05)
(0 -1.061219345e-05 9.452746519e-06)
(0 -3.288652475e-06 2.790314758e-06)
(0 -9.770054473e-07 7.877406409e-07)
(0 -2.812619959e-07 2.134523027e-07)
(0 -7.689176866e-08 5.472773987e-08)
(0 -1.788180666e-08 1.030556752e-08)
(0 -3.199902245e-09 2.964615315e-09)
(0 4.705738596e-10 4.564566438e-09)
(0 3.058730087e-09 6.211574947e-09)
(0 1.035262491e-09 2.682271e-09)
(0 -3.999877806e-09 4.18810735e-09)
(0 -3.905763035e-09 4.046935192e-09)
(0 4.65868121e-09 7.999755613e-10)
(0 7.670353911e-09 2.352869298e-10)
(0 1.552893737e-09 2.117582368e-09)
(0 -2.964615315e-09 6.588034034e-10)
(0 -8.893845946e-09 -5.176312455e-10)
(0 -3.011672701e-09 -2.399926684e-09)
(0 2.305811912e-09 -5.835115859e-09)
(0 2.117582368e-09 -9.882051051e-10)
(0 8.093870385e-09 -3.811648263e-09)
(0 5.458656771e-09 -3.105787473e-09)
(0 0 2.117582368e-09)
(0 -6.117460175e-10 8.470329473e-10)
(0 -5.646886315e-10 2.070524982e-09)
(0 -1.74112328e-09 2.305811912e-09)
(0 -6.070402789e-09 1.411721579e-09)
(0 -1309.46349 6688.931024)
(0 -3739.775294 6961.818326)
(0 -5454.302439 6987.677271)
(0 -5925.015198 6268.412833)
(0 -5270.603088 4709.451905)
(0 -4419.773831 3112.448714)
(0 -3991.037531 1579.57038)
(0 -1988.763225 60.093812)
(0 -61.9694894 22.5085737)
(0 -21.29800276 11.26707574)
(0 -10.58093603 5.267781416)
(0 -4.717673982 2.338137705)
(0 -1.923074514 1.007461668)
(0 -0.7364945785 0.4299268492)
(0 -0.2732039883 0.1834368399)
(0 -0.1009350946 0.07800446064)
(0 -0.03780071768 0.03269012125)
(0 -0.01438334079 0.01333073694)
(0 -0.005501040982 0.005236330434)
(0 -0.002080986027 0.001968344151)
(0 -0.000767346111 0.0007056199967)
(0 -0.0002729795195 0.0002409110874)
(0 -9.311649653e-05 7.833487751e-05)
(0 -3.036523707e-05 2.42764819e-05)
(0 -9.455052331e-06 7.179686548e-06)
(0 -2.813278762e-06 2.028126277e-06)
(0 -8.013872829e-07 5.496773254e-07)
(0 -2.188168447e-07 1.455484948e-07)
(0 -5.618651883e-08 3.882234342e-08)
(0 -1.129377263e-08 1.129377263e-08)
(0 1.505836351e-09 6.305689718e-09)
(0 1.599951123e-09 3.529303947e-09)
(0 -7.058607894e-10 -1.082319877e-09)
(0 -6.588034034e-10 2.682271e-09)
(0 -5.270427227e-09 6.39980449e-09)
(0 -7.529181753e-10 5.929230631e-09)
(0 6.023345403e-09 -2.399926684e-09)
(0 2.729328386e-09 -2.823443158e-09)
(0 -1.129377263e-09 4.705738596e-11)
(0 -6.729206192e-09 7.058607894e-10)
(0 -7.764468683e-09 -1.882295438e-09)
(0 -4.705738596e-10 -5.364541999e-09)
(0 2.776385772e-09 -4.988082912e-09)
(0 4.752795982e-09 -4.89396814e-09)
(0 7.623296525e-09 -4.517509052e-09)
(0 4.18810735e-09 -7.058607894e-10)
(0 -1.882295438e-10 -9.411477192e-11)
(0 -1.411721579e-10 9.882051051e-10)
(0 -1.270549421e-09 6.117460175e-10)
(0 -7.529181753e-09 1.411721579e-09)
(0 -1119.896075 4799.534144)
(0 -3370.617094 5197.972653)
(0 -5409.078804 5664.123482)
(0 -6682.936479 5669.54845)
(0 -6645.283404 4726.03868)
(0 -5935.822245 3219.090856)
(0 -5530.856047 1660.114478)
(0 -2782.821808 65.13651656)
(0 -86.85410112 25.6698177)
(0 -30.1144605 13.68882607)
(0 -15.2307031 7.014207814)
(0 -7.009972231 3.48916546)
(0 -2.995929356 1.701686937)
(0 -1.224001859 0.8171377418)
(0 -0.4925272821 0.3848493491)
(0 -0.1993442838 0.1761766814)
(0 -0.08157880702 0.07764139606)
(0 -0.03344494242 0.03269749895)
(0 -0.01352122538 0.01309943968)
(0 -0.005311791752 0.004981900277)
(0 -0.002006743872 0.001797846724)
(0 -0.0007246760264 0.0006160076284)
(0 -0.0002494372269 0.0002006351413)
(0 -8.176733736e-05 6.221198182e-05)
(0 -2.553696104e-05 1.839412043e-05)
(0 -7.60701467e-06 5.194711893e-06)
(0 -2.163933893e-06 1.404004167e-06)
(0 -5.87793808e-07 3.653064872e-07)
(0 -1.52042414e-07 9.392654237e-08)
(0 -3.576361333e-08 2.272871742e-08)
(0 -7.293894824e-09 4.846910754e-09)
(0 -4.282222122e-09 -3.623418719e-09)
(0 1.882295438e-10 -2.541098842e-09)
(0 3.435189175e-09 -2.729328386e-09)
(0 -6.588034034e-10 -1.411721579e-10)
(0 -4.18810735e-09 5.317484613e-09)
(0 -1.082319877e-09 -3.294017017e-10)
(0 4.046935192e-09 -3.905763035e-09)
(0 5.176312455e-10 1.411721579e-10)
(0 -1.082319877e-08 -2.917557929e-09)
(0 -9.08207549e-09 -4.42339428e-09)
(0 -7.529181753e-10 -2.588156228e-09)
(0 2.635213614e-09 -4.18810735e-09)
(0 8.517386859e-09 -2.870500543e-09)
(0 9.693821507e-09 -4.235164736e-10)
(0 4.42339428e-09 -1.505836351e-09)
(0 1.082319877e-09 4.705738596e-11)
(0 9.411477192e-11 1.882295438e-10)
(0 -1.317606807e-09 -9.411477192e-11)
(0 -8.093870385e-09 -7.529181753e-10)
(0 -911.0249809 3861.522516)
(0 -2875.185956 4291.248751)
(0 -4982.726642 4901.698981)
(0 -6863.1 5294.750285)
(0 -7721.060682 4889.508193)
(0 -7485.698033 3422.094989)
(0 -7144.991871 1784.809953)
(0 -3623.207885 75.09646683)
(0 -113.4171799 32.68402241)
(0 -39.95361264 19.1328842)
(0 -20.78059665 10.9372834)
(0 -10.03019486 6.098823798)
(0 -4.595102232 3.302804011)
(0 -2.053332167 1.726403333)
(0 -0.9141650487 0.8648691157)
(0 -0.4081430477 0.4126056292)
(0 -0.1812799002 0.1866076396)
(0 -0.07892529707 0.0798119019)
(0 -0.0332166397 0.0322572771)
(0 -0.01338257903 0.01232549716)
(0 -0.00513323876 0.004457723631)
(0 -0.001870191149 0.001528437966)
(0 -0.0006469120961 0.0004977238066)
(0 -0.000212606258 0.0001542207475)
(0 -6.647232226e-05 4.555253781e-05)
(0 -1.980339502e-05 1.285118388e-05)
(0 -5.630839746e-06 3.467376427e-06)
(0 -1.528941527e-06 8.979490389e-07)
(0 -3.987642886e-07 2.222990913e-07)
(0 -1.002322321e-07 5.242192796e-08)
(0 -2.47992424e-08 8.799731174e-09)
(0 -5.882173245e-09 4.705738596e-10)
(0 2.823443158e-10 7.529181753e-10)
(0 1.74112328e-09 -1.599951123e-09)
(0 2.776385772e-09 3.764590877e-10)
(0 -9.882051051e-10 1.97641021e-09)
(0 -3.199902245e-09 8.940903332e-10)
(0 3.246959631e-09 -8.470329473e-10)
(0 -1.882295438e-10 -3.764590877e-10)
(0 -1.134083002e-08 -2.023467596e-09)
(0 -7.388009595e-09 -3.764590877e-10)
(0 -2.352869298e-10 -1.411721579e-10)
(0 2.399926684e-09 4.705738596e-11)
(0 8.564444244e-09 4.705738596e-11)
(0 9.035018104e-09 -3.105787473e-09)
(0 4.65868121e-09 -3.529303947e-09)
(0 1.458778965e-09 -1.082319877e-09)
(0 -1.882295438e-10 -4.235164736e-10)
(0 -2.21169714e-09 0)
(0 -6.729206192e-09 -1.129377263e-09)
(0 -690.1698401 3370.618462)
(0 -2330.440628 3834.916754)
(0 -4405.57727 4529.456393)
(0 -6695.127267 5122.349109)
(0 -8517.9387 5119.795349)
(0 -9040.520484 3860.642879)
(0 -8877.854569 2015.82971)
(0 -4534.947739 95.54238221)
(0 -142.8176838 47.70165265)
(0 -51.86119952 31.10749266)
(0 -28.2647635 19.71909877)
(0 -14.64445162 12.01920927)
(0 -7.36834982 6.977189394)
(0 -3.661936754 3.832302297)
(0 -1.806324986 1.983719587)
(0 -0.8776057599 0.9657379911)
(0 -0.4143725343 0.4419486483)
(0 -0.187795305 0.190228286)
(0 -0.08100763007 0.07711688018)
(0 -0.03311134527 0.02949640258)
(0 -0.01280380306 0.01066616667)
(0 -0.004684675804 0.003654097499)
(0 -0.001623654446 0.001188493998)
(0 -0.0005339387003 0.0003677448127)
(0 -0.0001669065246 0.0001084640747)
(0 -4.9692129e-05 3.054927851e-05)
(0 -1.411716873e-05 8.231983813e-06)
(0 -3.832824086e-06 2.124358632e-06)
(0 -9.974754102e-07 5.248310256e-07)
(0 -2.493570882e-07 1.256432205e-07)
(0 -5.929230631e-08 2.894029236e-08)
(0 -1.228197774e-08 8.140927771e-09)
(0 -1.929352824e-09 1.458778965e-09)
(0 2.964615315e-09 -1.223492035e-09)
(0 2.964615315e-09 -5.646886315e-10)
(0 -3.576361333e-09 -6.117460175e-10)
(0 -3.999877806e-09 1.035262491e-09)
(0 2.776385772e-09 -7.999755613e-10)
(0 -6.117460175e-10 -6.588034034e-10)
(0 -1.077614138e-08 -2.023467596e-09)
(0 -7.199780052e-09 1.411721579e-10)
(0 -3.764590877e-10 -1.882295438e-10)
(0 2.776385772e-09 4.705738596e-11)
(0 5.411599385e-09 -2.682271e-09)
(0 6.117460175e-09 -5.741001087e-09)
(0 6.39980449e-09 -2.776385772e-09)
(0 4.18810735e-09 -1.599951123e-09)
(0 1.176434649e-09 -4.705738596e-11)
(0 -1.97641021e-09 9.411477192e-11)
(0 -6.964493122e-09 0)
(0 -446.7266889 3078.73539)
(0 -1716.348024 3588.495379)
(0 -3695.294287 4389.092658)
(0 -6272.761045 5162.15021)
(0 -8982.766912 5475.078728)
(0 -10589.66367 4581.792251)
(0 -10910.09237 2416.786002)
(0 -5591.335943 137.1827499)
(0 -177.8520694 79.96697927)
(0 -67.93616653 57.40967873)
(0 -39.86888004 39.29081491)
(0 -22.77210423 25.32242651)
(0 -12.7820092 15.27049465)
(0 -7.046801974 8.59541058)
(0 -3.780729355 4.515344493)
(0 -1.949913986 2.216274349)
(0 -0.9567896052 1.018269919)
(0 -0.4437570652 0.4389036202)
(0 -0.1939485231 0.1779016052)
(0 -0.07983329244 0.06797608488)
(0 -0.03097554388 0.02454416022)
(0 -0.01134786387 0.008394097307)
(0 -0.003933264736 0.002725260416)
(0 -0.001292636134 0.0008417352738)
(0 -0.0004036679035 0.000247825982)
(0 -0.000120035533 6.968436531e-05)
(0 -3.405571256e-05 1.874714493e-05)
(0 -9.236047257e-06 4.832322964e-06)
(0 -2.397573815e-06 1.195398776e-06)
(0 -5.961229653e-07 2.848383572e-07)
(0 -1.423485925e-07 6.531565171e-08)
(0 -3.341074403e-08 1.491719135e-08)
(0 -8.987960718e-09 1.647008509e-09)
(0 -2.352869298e-10 -1.505836351e-09)
(0 3.341074403e-09 -5.882173245e-09)
(0 6.117460175e-10 -5.035140298e-09)
(0 -3.388131789e-09 1.223492035e-09)
(0 1.458778965e-09 -9.882051051e-10)
(0 -1.317606807e-09 -9.411477192e-10)
(0 -1.049379707e-08 -1.74112328e-09)
(0 -5.552771543e-09 1.129377263e-09)
(0 -3.764590877e-10 1.411721579e-10)
(0 0 -2.823443158e-10)
(0 2.729328386e-09 -2.823443158e-09)
(0 8.893845946e-09 -2.399926684e-09)
(0 8.84678856e-09 0)
(0 4.18810735e-09 -2.823443158e-10)
(0 1.458778965e-09 -1.035262491e-09)
(0 -2.164639754e-09 -4.705738596e-11)
(0 -6.823320964e-09 -1.882295438e-10)
(0 -180.409851 2869.342455)
(0 -1020.08336 3403.571605)
(0 -2831.922439 4319.034957)
(0 -5609.141197 5297.082499)
(0 -9098.29666 5916.810401)
(0 -12098.81321 5430.826003)
(0 -13322.46407 3067.938967)
(0 -6871.766762 221.8704621)
(0 -222.5907549 149.5893827)
(0 -92.53736389 114.8496534)
(0 -60.35201572 82.26622698)
(0 -38.66477187 54.56514831)
(0 -24.09536575 33.47371685)
(0 -14.41708691 19.02102185)
(0 -8.185461218 10.03775425)
(0 -4.374680334 4.934160962)
(0 -2.191743263 2.26618783)
(0 -1.028163619 0.9754140974)
(0 -0.4519351654 0.3945903778)
(0 -0.1864687903 0.1504392351)
(0 -0.07238579059 0.0541952007)
(0 -0.0265035756 0.01849302451)
(0 -0.009176016573 0.005991013967)
(0 -0.003011373181 0.001846606082)
(0 -0.000938957339 0.0005426333523)
(0 -0.0002787710131 0.0001523071589)
(0 -7.896911696e-05 4.090576212e-05)
(0 -2.138466436e-05 1.05303136e-05)
(0 -5.545007074e-06 2.600814665e-06)
(0 -1.37929904e-06 6.168752725e-07)
(0 -3.292134722e-07 1.39478092e-07)
(0 -7.599767832e-08 3.063435826e-08)
(0 -1.835238052e-08 5.505714157e-09)
(0 -4.564566438e-09 1.788180666e-09)
(0 -5.646886315e-10 -3.482246561e-09)
(0 3.529303947e-09 -4.235164736e-09)
(0 1.411721579e-10 -1.176434649e-09)
(0 6.117460175e-10 9.411477192e-11)
(0 -1.411721579e-09 -9.411477192e-11)
(0 -8.799731174e-09 0)
(0 -5.317484613e-09 1.647008509e-09)
(0 -1.694065895e-09 0)
(0 -1.882295438e-10 -3.294017017e-10)
(0 3.246959631e-09 -4.705738596e-11)
(0 8.893845946e-09 8.940903332e-10)
(0 8.564444244e-09 -1.411721579e-10)
(0 3.152844859e-09 0)
(0 1.411721579e-09 -1.082319877e-09)
(0 -1.129377263e-09 -4.705738596e-11)
(0 -6.729206192e-09 7.529181753e-10)
(0 87.50246117 2738.040507)
(0 -266.6555215 3218.948685)
(0 -1801.783393 4211.959843)
(0 -4674.985601 5419.824992)
(0 -8849.023407 6387.60143)
(0 -13438.53511 6347.424896)
(0 -16119.04791 4074.661295)
(0 -8509.685527 394.6935192)
(0 -284.8728781 298.2445974)
(0 -135.2593223 238.0056722)
(0 -100.1533852 174.2328542)
(0 -71.56461437 116.8509569)
(0 -48.32613566 72.01929427)
(0 -30.48276458 40.96304052)
(0 -17.86759025 21.5920563)
(0 -9.721480401 10.58951575)
(0 -4.91553647 4.849800475)
(0 -2.315354517 2.081102212)
(0 -1.018923385 0.8393175789)
(0 -0.4202284696 0.3190536708)
(0 -0.1629217545 0.1146193097)
(0 -0.05955205061 0.03901041329)
(0 -0.02057968302 0.01260757348)
(0 -0.006741016655 0.003877426724)
(0 -0.00209796692 0.00113707651)
(0 -0.0006217631703 0.0003185563389)
(0 -0.0001758325578 8.540769674e-05)
(0 -4.75409006e-05 2.195020002e-05)
(0 -1.23110592e-05 5.415128689e-06)
(0 -3.057506595e-06 1.28334903e-06)
(0 -7.285424494e-07 2.917557929e-07)
(0 -1.673360645e-07 6.324512673e-08)
(0 -3.792825308e-08 1.256432205e-08)
(0 -9.223247648e-09 3.388131789e-09)
(0 -2.635213614e-09 1.97641021e-09)
(0 2.823443158e-09 1.882295438e-09)
(0 9.411477192e-10 -2.44698407e-09)
(0 2.588156228e-09 -2.823443158e-10)
(0 -1.411721579e-09 -2.729328386e-09)
(0 -8.752673788e-09 -6.588034034e-10)
(0 -5.505714157e-09 1.176434649e-09)
(0 -2.44698407e-09 1.788180666e-09)
(0 -9.411477192e-11 2.352869298e-10)
(0 3.999877806e-09 0)
(0 8.893845946e-09 1.647008509e-09)
(0 7.905640841e-09 -7.529181753e-10)
(0 3.246959631e-09 -8.940903332e-10)
(0 1.458778965e-09 -3.294017017e-10)
(0 -3.294017017e-10 -5.176312455e-10)
(0 -7.529181753e-09 0)
(0 300.4983262 2787.216317)
(0 453.8359749 3075.870972)
(0 -631.0461315 4036.39812)
(0 -3433.49961 5460.821088)
(0 -8170.696757 6832.758031)
(0 -14411.75334 7313.173074)
(0 -19275.19545 5458.046258)
(0 -10648.18346 732.022727)
(0 -379.2786018 607.7853028)
(0 -216.5491071 494.6379092)
(0 -181.506731 364.5130004)
(0 -140.8783318 244.5506245)
(0 -99.98328217 150.3244215)
(0 -64.84432489 85.15996329)
(0 -38.55898599 44.68815094)
(0 -21.11693616 21.81792342)
(0 -10.7001568 9.949006292)
(0 -5.038646514 4.251986483)
(0 -2.213983706 1.708472606)
(0 -0.9111670594 0.6472476724)
(0 -0.352429048 0.2318059628)
(0 -0.1285153118 0.07867410602)
(0 -0.04430900328 0.02536177204)
(0 -0.01448187011 0.007781956902)
(0 -0.004497827677 0.002277300736)
(0 -0.001330439732 0.0006367659119)
(0 -0.00037557535 0.0001704207232)
(0 -0.0001013772324 4.372769944e-05)
(0 -2.621181101e-05 1.077430615e-05)
(0 -6.502766051e-06 2.549992688e-06)
(0 -1.549317375e-06 5.815822331e-07)
(0 -3.551420918e-07 1.262079091e-07)
(0 -7.820937546e-08 2.592861966e-08)
(0 -1.524659305e-08 4.89396814e-09)
(0 -2.023467596e-09 3.905763035e-09)
(0 -7.999755613e-10 5.646886315e-10)
(0 -1.97641021e-09 -1.929352824e-09)
(0 3.764590877e-10 -4.235164736e-10)
(0 -1.835238052e-09 -2.305811912e-09)
(0 -4.89396814e-09 -1.411721579e-10)
(0 -2.870500543e-09 6.588034034e-10)
(0 -2.635213614e-09 1.270549421e-09)
(0 -1.97641021e-09 3.294017017e-10)
(0 4.611623824e-09 1.411721579e-10)
(0 8.187985157e-09 1.694065895e-09)
(0 5.929230631e-09 -6.117460175e-10)
(0 3.670476105e-09 -4.235164736e-10)
(0 1.74112328e-09 -3.764590877e-10)
(0 -8.470329473e-10 -7.529181753e-10)
(0 -6.164517561e-09 -7.529181753e-10)
(0 376.1571156 3039.833753)
(0 982.5262812 3137.910254)
(0 583.1667232 3848.076457)
(0 -1878.62569 5413.178821)
(0 -6996.671421 7234.300089)
(0 -14813.24688 8355.604657)
(0 -22700.19826 7116.194152)
(0 -13359.94648 1394.654865)
(0 -522.2576959 1237.544259)
(0 -378.5316247 1012.089807)
(0 -350.2406698 743.1662331)
(0 -285.7531933 495.3361782)
(0 -207.7167969 302.2763531)
(0 -136.1190351 170.0332862)
(0 -81.20963012 88.64355957)
(0 -44.46062505 43.02316098)
(0 -22.48147341 19.51549352)
(0 -10.5558882 8.301555921)
(0 -4.623662196 3.321801541)
(0 -1.896895112 1.25382474)
(0 -0.7314953209 0.4475773858)
(0 -0.2659962414 0.1514626241)
(0 -0.09147183209 0.04869849253)
(0 -0.02982548805 0.01490737527)
(0 -0.00924315791 0.004353188143)
(0 -0.002728643277 0.001214860957)
(0 -0.0007688706762 0.0003245651436)
(0 -0.0002071872706 8.31440953e-05)
(0 -5.348876595e-05 2.045490453e-05)
(0 -1.325027757e-05 4.838393367e-06)
(0 -3.152327228e-06 1.102272209e-06)
(0 -7.229426205e-07 2.408867587e-07)
(0 -1.591951367e-07 4.95984848e-08)
(0 -3.124610428e-08 6.39980449e-09)
(0 -7.011550508e-09 -9.411477192e-10)
(0 -3.011672701e-09 -3.905763035e-09)
(0 -9.411477192e-11 -1.505836351e-09)
(0 2.164639754e-09 1.270549421e-09)
(0 -1.082319877e-09 9.411477192e-10)
(0 -5.788058473e-09 5.646886315e-10)
(0 -4.282222122e-09 -8.940903332e-10)
(0 -2.635213614e-09 -1.317606807e-09)
(0 -1.129377263e-09 -4.705738596e-11)
(0 5.364541999e-09 -9.411477192e-11)
(0 8.093870385e-09 -1.458778965e-09)
(0 5.788058473e-09 -5.176312455e-10)
(0 3.388131789e-09 -5.646886315e-10)
(0 1.129377263e-09 -4.235164736e-10)
(0 -6.588034034e-10 -9.411477192e-11)
(0 -6.023345403e-09 -3.294017017e-10)
(0 398.5748274 3389.473695)
(0 1262.07868 3448.215003)
(0 1644.222436 3812.081242)
(0 -47.27597884 5338.347688)
(0 -5228.27092 7630.8214)
(0 -14529.85928 9595.54469)
(0 -26236.14524 9163.807624)
(0 -16526.83335 2695.232484)
(0 -761.8436595 2486.039414)
(0 -710.927133 2017.07323)
(0 -698.2603597 1464.416804)
(0 -581.7682118 964.9882763)
(0 -425.2861741 582.7821066)
(0 -278.4771184 324.8371042)
(0 -165.5691112 168.0127358)
(0 -90.24500221 80.99088641)
(0 -45.42176186 36.52252239)
(0 -21.23233849 15.4572996)
(0 -9.261714888 6.157877225)
(0 -3.785391215 2.315372891)
(0 -1.454791164 0.8237274357)
(0 -0.5273942051 0.2779228978)
(0 -0.1808642522 0.08912165575)
(0 -0.05882717454 0.0272170531)
(0 -0.01819034194 0.007930938468)
(0 -0.005359062731 0.002209077173)
(0 -0.001507292212 0.0005891564958)
(0 -0.0004054874244 0.0001506848555)
(0 -0.00010451756 3.701661034e-05)
(0 -2.585530426e-05 8.748015107e-06)
(0 -6.146871041e-06 1.991186229e-06)
(0 -1.40790993e-06 4.372101729e-07)
(0 -3.126963297e-07 9.369125544e-08)
(0 -6.573916818e-08 1.637597031e-08)
(0 -1.232903512e-08 -2.682271e-09)
(0 -1.411721579e-09 -3.811648263e-09)
(0 3.199902245e-09 -6.117460175e-10)
(0 2.870500543e-09 1.647008509e-09)
(0 -2.588156228e-09 9.411477192e-11)
(0 -6.729206192e-09 -2.352869298e-10)
(0 -4.65868121e-09 -2.117582368e-09)
(0 -1.835238052e-09 -7.999755613e-10)
(0 -7.999755613e-10 4.705738596e-11)
(0 3.199902245e-09 -1.411721579e-10)
(0 7.717411297e-09 -3.435189175e-09)
(0 6.917435736e-09 -1.97641021e-09)
(0 3.764590877e-09 -1.599951123e-09)
(0 2.21169714e-09 2.352869298e-10)
(0 -7.529181753e-10 9.411477192e-11)
(0 -5.741001087e-09 -3.764590877e-10)
(0 434.8984234 3782.144434)
(0 1405.133829 3863.784977)
(0 2473.299409 4147.612241)
(0 1940.114468 5304.372037)
(0 -2739.474418 8067.266794)
(0 -13280.26065 11153.93567)
(0 -29600.51046 12041.41745)
(0 -20037.71469 5195.224614)
(0 -1200.41695 4877.438006)
(0 -1400.154236 3885.017245)
(0 -1402.325624 2772.224339)
(0 -1167.38789 1799.6305)
(0 -847.867969 1073.212501)
(0 -550.888406 591.9178684)
(0 -325.0558479 303.4626985)
(0 -175.9508384 145.205071)
(0 -88.01506022 65.07126517)
(0 -40.92053336 27.3937538)
(0 -17.7655889 10.8634974)
(0 -7.231044901 4.068660361)
(0 -2.768945315 1.442543799)
(0 -1.000602021 0.4852544071)
(0 -0.3421776769 0.1551964944)
(0 -0.1110162053 0.04728486014)
(0 -0.03425113384 0.01374980508)
(0 -0.01007042525 0.003822657856)
(0 -0.002827262994 0.001017762837)
(0 -0.0007593272031 0.0002599067424)
(0 -0.0001954256064 6.375452293e-05)
(0 -4.827570168e-05 1.504415218e-05)
(0 -1.14630851e-05 3.420930787e-06)
(0 -2.620437594e-06 7.505182487e-07)
(0 -5.800293393e-07 1.608892026e-07)
(0 -1.276666881e-07 3.28460554e-08)
(0 -2.719916908e-08 3.388131789e-09)
(0 -7.999755613e-10 -1.223492035e-09)
(0 5.364541999e-09 -7.999755613e-10)
(0 2.776385772e-09 3.294017017e-10)
(0 -2.917557929e-09 -4.705738596e-10)
(0 -7.999755613e-09 -4.235164736e-10)
(0 -4.846910754e-09 -1.411721579e-09)
(0 -5.176312455e-10 -2.352869298e-10)
(0 -4.235164736e-10 4.705738596e-11)
(0 1.882295438e-09 1.411721579e-10)
(0 6.211574947e-09 -1.317606807e-09)
(0 7.623296525e-09 -1.129377263e-09)
(0 5.646886315e-09 -4.705738596e-11)
(0 2.823443158e-09 5.646886315e-10)
(0 -1.317606807e-09 -9.411477192e-11)
(0 -5.741001087e-09 -4.705738596e-11)
(0 480.215371 4200.178419)
(0 1627.546487 4295.130178)
(0 3084.809495 4615.654809)
(0 3872.378574 5480.081353)
(0 621.2927084 8507.727298)
(0 -10555.70863 13050.12842)
(0 -32194.85629 16170.20076)
(0 -23690.81279 9836.151247)
(0 -2072.051029 9261.167854)
(0 -2816.1408 7183.024001)
(0 -2783.647105 5015.593737)
(0 -2280.78005 3199.440877)
(0 -1632.998805 1881.200888)
(0 -1048.226921 1025.708641)
(0 -612.2819086 520.9402504)
(0 -328.6364356 247.3418631)
(0 -163.2330791 110.1289628)
(0 -75.44010626 46.11133675)
(0 -32.58680833 18.20235603)
(0 -13.20634481 6.790466714)
(0 -5.038197118 2.399394966)
(0 -1.81474151 0.8047454759)
(0 -0.6188337991 0.2567115628)
(0 -0.2002738639 0.07803536558)
(0 -0.06165254423 0.02264548584)
(0 -0.01809110493 0.006284327783)
(0 -0.005070043467 0.001670422099)
(0 -0.001359495645 0.0004259402584)
(0 -0.0003493801031 0.0001043401066)
(0 -8.618899051e-05 2.458880177e-05)
(0 -2.044050497e-05 5.582747098e-06)
(0 -4.667904458e-06 1.222409715e-06)
(0 -1.030321466e-06 2.576391881e-07)
(0 -2.231931816e-07 5.439833817e-08)
(0 -4.644563994e-08 1.242314989e-08)
(0 -5.646886315e-09 4.517509052e-09)
(0 4.705738596e-09 -1.97641021e-09)
(0 3.199902245e-09 -2.823443158e-09)
(0 -3.294017017e-09 -2.352869298e-09)
(0 -7.717411297e-09 -2.494041456e-09)
(0 -4.470451666e-09 -5.176312455e-10)
(0 -3.294017017e-10 -2.352869298e-10)
(0 -4.235164736e-10 0)
(0 1.882295438e-09 0)
(0 6.39980449e-09 -2.352869298e-10)
(0 8.140927771e-09 4.235164736e-10)
(0 5.458656771e-09 9.882051051e-10)
(0 2.21169714e-09 -1.411721579e-10)
(0 -1.364664193e-09 -9.411477192e-11)
(0 -5.599828929e-09 3.764590877e-10)
(0 529.8501834 4631.063567)
(0 1820.61022 4740.029497)
(0 3658.250583 5065.16157)
(0 5832.186957 5920.223756)
(0 4830.572646 8677.110782)
(0 -5617.787188 15036.03887)
(0 -32814.48763 21720.27193)
(0 -26946.7476 17981.59252)
(0 -3853.544195 16868.55155)
(0 -5645.728353 12667.38644)
(0 -5385.908748 8629.65848)
(0 -4301.780739 5400.484663)
(0 -3021.600205 3127.895791)
(0 -1911.149043 1685.115506)
(0 -1103.422626 847.6042297)
(0 -586.762126 399.2811338)
(0 -289.2455865 176.6284938)
(0 -132.8471402 73.55569778)
(0 -57.08645894 28.90400604)
(0 -23.03400597 10.74110337)
(0 -8.754666553 3.782760595)
(0 -3.143285425 1.26507863)
(0 -1.068887787 0.4025456203)
(0 -0.3450822822 0.1220964238)
(0 -0.1060021717 0.03536258266)
(0 -0.03104548895 0.009796332305)
(0 -0.008685650471 0.002599859164)
(0 -0.002325409243 0.0006619982705)
(0 -0.0005967771571 0.000161958017)
(0 -0.0001470329671 3.8121706e-05)
(0 -3.482947716e-05 8.644018284e-06)
(0 -7.945592562e-06 1.891283399e-06)
(0 -1.748087774e-06 3.996113216e-07)
(0 -3.728356689e-07 8.357391746e-08)
(0 -7.693882604e-08 2.089347937e-08)
(0 -1.534070782e-08 7.858583455e-09)
(0 -2.023467596e-09 5.646886315e-10)
(0 2.44698407e-09 -5.364541999e-09)
(0 -2.588156228e-09 -5.223369841e-09)
(0 -6.164517561e-09 -2.070524982e-09)
(0 -2.541098842e-09 -3.764590877e-10)
(0 0 -4.235164736e-10)
(0 -1.882295438e-10 0)
(0 1.647008509e-09 0)
(0 6.682148806e-09 8.470329473e-10)
(0 8.84678856e-09 1.411721579e-09)
(0 5.082197684e-09 1.411721579e-09)
(0 1.694065895e-09 -9.411477192e-11)
(0 -7.999755613e-10 9.411477192e-11)
(0 -6.023345403e-09 3.764590877e-10)
(0 589.1813014 5074.751953)
(0 2061.64449 5208.468831)
(0 4265.003754 5622.220691)
(0 7484.327786 6538.940289)
(0 9737.107826 8886.936078)
(0 2487.452515 16439.33124)
(0 -29249.30264 28365.0012)
(0 -28542.53317 31210.4758)
(0 -7386.257113 29212.51004)
(0 -11055.03387 21171.93893)
(0 -10050.54888 14049.68726)
(0 -7782.542739 8618.774836)
(0 -5348.367962 4915.401392)
(0 -3328.518482 2616.144746)
(0 -1898.116281 1303.222871)
(0 -999.6121715 609.1248941)
(0 -488.9585151 267.7379132)
(0 -223.164594 110.9090884)
(0 -95.40140273 43.3897007)
(0 -38.32759026 16.06397101)
(0 -14.51422186 5.639311552)
(0 -5.194956484 1.880787858)
(0 -1.761816005 0.5970333945)
(0 -0.5674569016 0.1807073863)
(0 -0.1739526357 0.05224112548)
(0 -0.05085382847 0.01444828116)
(0 -0.01420437741 0.00382878741)
(0 -0.003797396792 0.0009736215036)
(0 -0.0009732566206 0.0002379096732)
(0 -0.0002395029892 5.593786761e-05)
(0 -5.667088051e-05 1.266991883e-05)
(0 -1.291235848e-05 2.768809532e-06)
(0 -2.838078005e-06 5.851585944e-07)
(0 -6.019110238e-07 1.203727933e-07)
(0 -1.222080313e-07 2.84697185e-08)
(0 -2.597567705e-08 8.046812999e-09)
(0 -8.470329473e-09 4.752795982e-09)
(0 -2.588156228e-09 -1.270549421e-09)
(0 -9.411477192e-11 -3.011672701e-09)
(0 -2.870500543e-09 5.176312455e-10)
(0 -2.729328386e-09 4.235164736e-10)
(0 0 0)
(0 0 -3.294017017e-10)
(0 2.729328386e-09 1.411721579e-10)
(0 7.811526069e-09 6.117460175e-10)
(0 8.752673788e-09 2.023467596e-09)
(0 3.858705649e-09 9.411477192e-10)
(0 8.940903332e-10 9.411477192e-11)
(0 -7.999755613e-10 6.588034034e-10)
(0 -6.117460175e-09 1.882295438e-10)
(0 663.5670617 5507.561687)
(0 2368.078958 5685.895604)
(0 4988.722042 6224.831861)
(0 9096.902343 7389.452602)
(0 14730.9636 9718.584232)
(0 13860.27793 16730.85514)
(0 -18043.34307 35108.26366)
(0 -26099.23876 50680.0916)
(0 -13892.08106 47681.71167)
(0 -20808.55112 33321.38344)
(0 -17939.07285 21531.50265)
(0 -13436.06661 12947.09562)
(0 -9024.230295 7271.579624)
(0 -5523.327564 3824.197731)
(0 -3110.442478 1887.074024)
(0 -1622.247084 875.34792)
(0 -787.4613923 382.3895391)
(0 -357.1953527 157.6014823)
(0 -151.9315763 61.39693492)
(0 -60.78439512 22.6501322)
(0 -22.93784971 7.927439297)
(0 -8.185563583 2.637067486)
(0 -2.768968259 0.8352279726)
(0 -0.8898745511 0.2523075475)
(0 -0.2722612768 0.07281421543)
(0 -0.07945782702 0.02010728442)
(0 -0.02216031022 0.005321118526)
(0 -0.005916287026 0.001351435703)
(0 -0.001514460746 0.0003298617818)
(0 -0.0003722727214 7.747909189e-05)
(0 -8.799853523e-05 1.753377024e-05)
(0 -2.003035279e-05 3.827694831e-06)
(0 -4.396477455e-06 8.069400544e-07)
(0 -9.295716022e-07 1.663478594e-07)
(0 -1.893118637e-07 3.463423607e-08)
(0 -3.901057296e-08 7.670353911e-09)
(0 -1.129377263e-08 3.435189175e-09)
(0 -5.317484613e-09 2.494041456e-09)
(0 -7.058607894e-10 2.258754526e-09)
(0 -2.823443158e-09 2.682271e-09)
(0 -3.105787473e-09 2.117582368e-09)
(0 -7.058607894e-10 1.411721579e-10)
(0 -4.705738596e-11 4.705738596e-11)
(0 2.541098842e-09 1.411721579e-10)
(0 8.564444244e-09 -9.411477192e-10)
(0 9.270305034e-09 2.352869298e-10)
(0 3.152844859e-09 -3.764590877e-10)
(0 1.411721579e-09 1.97641021e-09)
(0 -7.999755613e-10 8.940903332e-10)
(0 -6.823320964e-09 9.411477192e-11)
(0 767.5152192 5878.706877)
(0 2778.914664 6125.259284)
(0 5968.560752 6839.121268)
(0 10978.08016 8435.11038)
(0 19078.51036 11450.80694)
(0 27877.13194 18251.93306)
(0 4699.933816 40117.36076)
(0 -15969.08516 76140.41587)
(0 -24744.96527 72736.94912)
(0 -37205.24288 49054.09151)
(0 -30424.83669 30886.29498)
(0 -22042.46577 18215.63544)
(0 -14471.26585 10080.47018)
(0 -8713.024082 5241.014097)
(0 -4846.966091 2562.993625)
(0 -2504.296657 1180.359592)
(0 -1206.704953 512.6407001)
(0 -544.1571982 210.280421)
(0 -230.3527529 81.59645911)
(0 -91.79708588 30.00261275)
(0 -34.52728658 10.47139766)
(0 -12.28716781 3.474977284)
(0 -4.146575944 1.098339258)
(0 -1.329870659 0.3311905672)
(0 -0.4061528988 0.09542783129)
(0 -0.1183469254 0.02631492527)
(0 -0.03296022617 0.006955159901)
(0 -0.008788653489 0.001764453109)
(0 -0.002247213184 0.000430232692)
(0 -0.0005518310008 0.0001009608687)
(0 -0.0001303223246 2.282993786e-05)
(0 -2.963918866e-05 4.97947141e-06)
(0 -6.499424976e-06 1.050179682e-06)
(0 -1.374216842e-06 2.148640243e-07)
(0 -2.808855368e-07 4.173990135e-08)
(0 -5.712766655e-08 7.576239139e-09)
(0 -1.359958454e-08 8.940903332e-10)