/*--------------------------------*- C++ -*----------------------------------*\
  =========                 |
  \\      /  F ield         | OpenFOAM: The Open Source CFD Toolbox
   \\    /   O peration     | Website:  https://openfoam.org
    \\  /    A nd           | Version:  6
     \\/     M anipulation  |
\*---------------------------------------------------------------------------*/
FoamFile
{
    version     2.0;
    format      ascii;
    class       volVectorField;
    location    "0.08";
    object      Marangoni;
}
// * * * * * * * * * * * * * * * * * * * * * * * * * * * * * * * * * * * * * //

dimensions      [1 -2 -2 0 0 0 0];

internalField   nonuniform List<vector> 
2500
(
(-0 4.151593244e-12 -7.381710767e-11)
(-0 1.255674351e-11 -8.455326322e-11)
(-0 2.130619568e-11 -1.075446851e-10)
(-0 1.621193025e-11 -7.465200079e-11)
(-0 2.070957267e-12 -8.720848222e-12)
(-0 1.458260401e-19 -4.797211838e-19)
(-0 1.898599122e-07 -3.56179547e-07)
(-0 3.336666799e-06 -5.12636702)
(-0 1.050000596e-07 -1.790008018)
(-0 9.353373569e-10 -2.157954194e-09)
(-0 2.389358904e-15 -4.824269649e-15)
(-0 1.492383965e-15 -2.713007495e-15)
(-0 8.624452277e-16 -1.461707358e-15)
(-0 3.183852129e-16 -5.222943727e-16)
(-0 1.327167524e-16 -2.18693623e-16)
(-0 3.533949115e-17 -6.034246906e-17)
(-0 2.078157828e-17 -3.739655944e-17)
(-0 4.484825751e-18 -8.486366226e-18)
(-0 2.306436391e-18 -4.508124364e-18)
(-0 7.924831285e-19 -1.562043544e-18)
(-0 3.087130266e-19 -6.003432595e-19)
(-0 5.674560002e-20 -1.071311601e-19)
(-0 2.460214689e-20 -4.465113467e-20)
(-0 9.956878832e-21 -1.728657255e-20)
(-0 3.267320633e-21 -5.40722967e-21)
(-0 8.414732208e-22 -1.309819722e-21)
(-0 7.197650251e-23 -9.922297094e-23)
(-0 2.1066957e-23 -2.465282202e-23)
(-0 6.844911907e-24 -3.017649335e-24)
(-0 1.361782159e-23 9.694042485e-24)
(-0 3.461442184e-24 1.384576874e-23)
(-0 -8.630665615e-24 1.294599842e-23)
(-0 -3.464996614e-24 5.974132094e-25)
(-0 4.559884161e-24 5.821128716e-24)
(-0 4.740573622e-24 1.709101543e-23)
(-0 -9.310386909e-24 2.553303077e-23)
(-0 -0 -0)
(-0 -0 -0)
(-0 -0 -0)
(-0 0 -0)
(-0 0 0)
(-0 0 0)
(-0 -0 0)
(-0 -0 0)
(-0 -0 -0)
(-0 -0 -0)
(-0 0 -0)
(-0 0 -0)
(-0 0 -0)
(-0 0 -0)
(-0 1.583569909e-11 -1.200392602e-10)
(-0 1.025726392e-11 -2.862764469e-11)
(-0 4.12406716e-11 -7.944647316e-11)
(-0 4.293858423e-11 -6.927661194e-11)
(-0 1.097401191e-11 -1.555835643e-11)
(-0 3.551121627e-16 -3.986203238e-16)
(-0 2.695801944e-07 -1.711319254e-07)
(-0 9.343068889e-06 -4.899442075)
(-0 2.933999943e-07 -1.785812257)
(-0 1.377513439e-09 -1.103587043e-09)
(-0 1.893870444e-14 -1.357748826e-14)
(-0 8.706444561e-15 -5.815857625e-15)
(-0 6.375401773e-15 -4.161217756e-15)
(-0 2.185061998e-15 -1.464729445e-15)
(-0 9.223427959e-16 -6.640339942e-16)
(-0 2.868229493e-16 -2.28123269e-16)
(-0 5.642299673e-17 -4.970600758e-17)
(-0 1.421767939e-17 -1.357849915e-17)
(-0 6.202960957e-18 -6.207865595e-18)
(-0 3.191601713e-18 -3.236506853e-18)
(-0 1.526913947e-18 -1.528499374e-18)
(-0 4.459101084e-19 -4.33048441e-19)
(-0 1.981208522e-19 -1.847623615e-19)
(-0 6.712491114e-20 -5.978171637e-20)
(-0 2.646388591e-20 -2.245082438e-20)
(-0 7.432598101e-21 -5.990812377e-21)
(-0 1.086157692e-21 -8.238051777e-22)
(-0 2.21584026e-22 -1.578257142e-22)
(-0 7.211231097e-23 -4.123443314e-23)
(-0 1.251075135e-23 -1.157711319e-23)
(-0 -1.360443054e-24 -1.306025332e-23)
(-0 -1.759148851e-23 -3.54536153e-23)
(-0 -4.136672912e-24 -1.103112777e-23)
(-0 2.36352598e-23 -2.474750732e-23)
(-0 2.305902662e-23 -2.417030501e-23)
(-0 -2.290473619e-23 -3.701775546e-24)
(-0 -1.504091881e-23 -3.691023021e-25)
(-0 -0 -0)
(-0 0 -0)
(-0 0 0)
(-0 0 0)
(-0 -0 0)
(-0 -0 0)
(-0 -0 0)
(-0 -0 0)
(-0 -0 -0)
(-0 0 -0)
(-0 0 -0)
(-0 0 -0)
(-0 0 -0)
(-0 1.80055167e-11 -9.210852056e-11)
(-0 3.470953635e-11 -6.468769984e-11)
(-0 5.087925688e-11 -6.523044688e-11)
(-0 5.911777992e-11 -6.257184967e-11)
(-0 1.368816838e-11 -1.223446793e-11)
(-0 1.551848804e-12 -1.092995586e-12)
(-0 2.45244595e-07 -9.708668928e-08)
(-0 1.516886392e-05 -5.005338418)
(-0 4.745070413e-07 -1.873905149)
(-0 1.302418942e-09 -6.8875147e-10)
(-0 2.998804515e-14 -1.492057878e-14)
(-0 2.14031856e-14 -1.060201513e-14)
(-0 9.189137626e-15 -4.812083754e-15)
(-0 1.528860673e-15 -8.922574422e-16)
(-0 5.449753703e-16 -3.65882546e-16)
(-0 5.327086858e-16 -4.116985535e-16)
(-0 1.563229486e-16 -1.35197697e-16)
(-0 5.3412404e-17 -4.950632953e-17)
(-0 3.362256649e-17 -3.20051638e-17)
(-0 9.539068684e-18 -9.022487086e-18)
(-0 1.928180022e-18 -1.772964582e-18)
(-0 1.484827645e-19 -1.310279541e-19)
(-0 2.307359688e-19 -1.940874736e-19)
(-0 7.865069715e-20 -6.287244964e-20)
(-0 2.378727998e-20 -1.80604458e-20)
(-0 1.844466647e-20 -1.329509461e-20)
(-0 4.10918879e-21 -2.818617472e-21)
(-0 7.714403356e-22 -5.131247081e-22)
(-0 2.524020235e-22 -1.747234918e-22)
(-0 4.489660602e-23 -4.508524722e-23)
(-0 -7.788479132e-24 -3.06957707e-23)
(-0 -8.024125837e-24 -1.770027758e-23)
(-0 3.131971291e-24 4.921669171e-24)
(-0 3.511022521e-24 -1.310781741e-23)
(-0 3.317425599e-23 -4.028302513e-23)
(-0 5.6219647e-24 -4.392159922e-23)
(-0 -2.579844451e-23 1.007751739e-23)
(-0 -2.709177031e-24 2.802596929e-24)
(-0 0 -0)
(-0 0 -0)
(-0 0 0)
(-0 0 0)
(-0 -0 0)
(-0 -0 0)
(-0 -0 0)
(-0 -0 0)
(-0 0 0)
(-0 0 -0)
(-0 0 -0)
(-0 0 -0)
(-0 4.414851275e-12 -1.895462839e-11)
(-0 4.463976779e-11 -6.892724812e-11)
(-0 2.008279451e-11 -2.104315472e-11)
(-0 7.039500524e-11 -5.973437746e-11)
(-0 4.876383477e-11 -3.46815421e-11)
(-0 4.17370516e-12 -2.263236065e-12)
(-0 1.701602032e-07 -5.106957509e-08)
(-0 2.123296606e-05 -5.424779866)
(-0 6.622598526e-07 -2.136982742)
(-0 8.971215656e-10 -4.075650956e-10)
(-0 5.911138449e-14 -2.720688851e-14)
(-0 1.937212408e-14 -9.637844065e-15)
(-0 1.370448335e-14 -7.781753393e-15)
(-0 9.241186657e-15 -6.168515542e-15)
(-0 4.047984829e-15 -3.162970889e-15)
(-0 1.495495658e-15 -1.321759931e-15)
(-0 4.116247261e-16 -3.917786016e-16)
(-0 1.199955332e-16 -1.173163029e-16)
(-0 4.288848784e-17 -4.15498032e-17)
(-0 2.805637563e-17 -2.631247262e-17)
(-0 1.170612796e-17 -1.048668882e-17)
(-0 2.085533898e-18 -1.772619887e-18)
(-0 1.429159391e-18 -1.149415375e-18)
(-0 5.432455255e-19 -4.132736295e-19)
(-0 1.915997699e-19 -1.379904148e-19)
(-0 2.755137498e-20 -1.881212807e-20)
(-0 2.341631972e-21 -1.519094421e-21)
(-0 8.99150113e-22 -5.587627455e-22)
(-0 3.79903755e-22 -2.345698574e-22)
(-0 8.801684524e-23 -5.603194392e-23)
(-0 4.600428875e-23 -3.076910222e-23)
(-0 1.498555474e-23 1.270514424e-23)
(-0 -1.098582851e-24 1.208441136e-23)
(-0 -1.064312831e-23 8.425809911e-24)
(-0 3.243849321e-24 6.951105687e-25)
(-0 2.353226015e-23 -3.048497338e-23)
(-0 5.74100125e-24 1.826682216e-24)
(-0 -9.415542296e-24 9.087093146e-24)
(-0 -0 -0)
(-0 0 0)
(-0 0 0)
(-0 0 0)
(-0 -0 0)
(-0 -0 0)
(-0 -0 0)
(-0 -0 0)
(-0 -0 -0)
(-0 -0 -0)
(-0 0 0)
(-0 0 0)
(-0 4.221010305e-13 -1.792319799e-12)
(-0 1.758331371e-11 -2.62693255e-11)
(-0 5.372949013e-11 -5.286779018e-11)
(-0 1.913852316e-11 -1.476160406e-11)
(-0 8.228720545e-11 -5.208793568e-11)
(-0 2.869123272e-11 -1.310976565e-11)
(-0 5.463317352e-07 -1.364648666e-07)
(-0 2.765061323e-05 -6.252803164)
(-0 8.618300909e-07 -2.720754598)
(-0 2.989906816e-09 -1.431415512e-09)
(-0 1.247553464e-13 -6.562498633e-14)
(-0 3.287406794e-14 -1.998065556e-14)
(-0 3.032109011e-14 -2.178841133e-14)
(-0 7.452435897e-15 -6.265253679e-15)
(-0 3.869218298e-15 -3.66053567e-15)
(-0 3.935683534e-16 -3.9787743e-16)
(-0 6.543603047e-16 -6.735909029e-16)
(-0 2.177189473e-16 -2.201576413e-16)
(-0 6.749709513e-17 -6.554355565e-17)
(-0 1.814088819e-17 -1.670650248e-17)
(-0 8.373662714e-18 -7.270961494e-18)
(-0 2.633537162e-18 -2.152041621e-18)
(-0 9.451170925e-19 -7.270672193e-19)
(-0 7.129070939e-19 -5.170623089e-19)
(-0 3.230941939e-19 -2.213819142e-19)
(-0 8.186234694e-20 -5.311654362e-20)
(-0 2.980833851e-20 -1.835325017e-20)
(-0 6.281446122e-21 -3.688445553e-21)
(-0 2.484620666e-21 -1.384706042e-21)
(-0 5.033544854e-22 -2.634578796e-22)
(-0 8.554965443e-23 -3.004033667e-23)
(-0 2.126777122e-23 -1.886657124e-24)
(-0 -9.589403055e-25 -3.068608978e-24)
(-0 -4.530257282e-24 4.162939124e-24)
(-0 -1.49831819e-23 -1.997757586e-24)
(-0 6.185595823e-24 -1.237119165e-23)
(-0 1.391635422e-23 -3.479088556e-24)
(-0 -1.23338596e-23 3.217528592e-24)
(-0 5.189994312e-26 8.3039909e-26)
(-0 0 0)
(-0 0 0)
(-0 0 0)
(-0 -0 -0)
(-0 -0 -0)
(-0 -0 0)
(-0 -0 0)
(-0 -0 0)
(-0 0 0)
(-0 0 -0)
(-0 0 0)
(-0 3.12054246e-13 -1.526424092e-12)
(-0 1.155578635e-12 -1.902683588e-12)
(-0 3.723198318e-11 -3.826879943e-11)
(-0 6.114844214e-11 -4.675212131e-11)
(-0 7.328387851e-11 -4.40110727e-11)
(-0 8.647810544e-11 -3.689518821e-11)
(-0 1.222354913e-06 -2.776852711e-07)
(-0 3.460341253e-05 -7.95302118)
(-0 1.085237029e-06 -3.970585124)
(-0 6.930120054e-09 -4.158958237e-09)
(-0 2.785182081e-14 -1.942094699e-14)
(-0 1.334363548e-13 -1.094767672e-13)
(-0 2.855354214e-14 -2.703231396e-14)
(-0 4.317509205e-15 -4.517964994e-15)
(-0 1.873685665e-16 -2.057611276e-16)
(-0 1.264382669e-15 -1.391305701e-15)
(-0 1.129058974e-15 -1.204132409e-15)
(-0 6.453774317e-16 -6.536891935e-16)
(-0 5.045799863e-17 -4.802995695e-17)
(-0 7.258084136e-17 -6.46496722e-17)
(-0 2.438637577e-17 -2.031253035e-17)
(-0 6.063669489e-18 -4.729118298e-18)
(-0 3.629283276e-18 -2.656232124e-18)
(-0 1.84300902e-19 -1.269178599e-19)
(-0 2.157547739e-19 -1.401884841e-19)
(-0 1.609871975e-19 -9.895611392e-20)
(-0 4.536979203e-20 -2.64519341e-20)
(-0 7.481034338e-21 -4.145760269e-21)
(-0 4.363706905e-21 -2.295488416e-21)
(-0 1.671452148e-21 -8.416014045e-22)
(-0 3.744113797e-22 -1.825666999e-22)
(-0 6.307931727e-23 -4.205287818e-23)
(-0 6.530141326e-24 -4.897605994e-24)
(-0 -2.0272323e-23 8.235631217e-24)
(-0 -1.169181919e-23 2.262932747e-24)
(-0 1.59935936e-23 2.735746274e-24)
(-0 2.178770526e-23 -5.639170773e-24)
(-0 -1.0948305e-23 3.102019749e-24)
(-0 6.297193099e-25 5.847393592e-25)
(-0 0 0)
(-0 0 -0)
(-0 0 0)
(-0 -0 -0)
(-0 -0 0)
(-0 -0 0)
(-0 -0 0)
(-0 -0 0)
(-0 -0 0)
(-0 0 -0)
(-0 0 -0)
(-0 2.016620153e-13 -1.391989718e-12)
(-0 1.219266634e-12 -2.549897811e-12)
(-0 1.946972242e-12 -2.311235314e-12)
(-0 6.179186541e-11 -5.080900751e-11)
(-0 5.332707191e-11 -3.24745394e-11)
(-0 1.097294582e-10 -4.743725042e-11)
(-0 1.861262815e-06 -4.128004421e-07)
(-0 4.265237824e-05 -11.41819629)
(-0 1.353420875e-06 -6.655898679)
(-0 1.101709952e-08 -9.320031231e-09)
(-0 3.3659491e-13 -3.315662426e-13)
(-0 1.391981783e-13 -1.547428286e-13)
(-0 1.024513991e-14 -1.223769429e-14)
(-0 1.07132367e-14 -1.30662966e-14)
(-0 8.728100339e-15 -1.042322713e-14)
(-0 2.797090886e-15 -3.1789268e-15)
(-0 1.244240378e-15 -1.324070393e-15)
(-0 1.38979649e-15 -1.374451203e-15)
(-0 7.007727984e-16 -6.427168742e-16)
(-0 9.400572012e-17 -8.003344768e-17)
(-0 2.549553649e-17 -2.019926933e-17)
(-0 2.479210874e-17 -1.833637887e-17)
(-0 1.26979142e-17 -8.796825279e-18)
(-0 3.427103974e-18 -2.231332285e-18)
(-0 1.118910328e-18 -6.868389886e-19)
(-0 2.831364459e-19 -1.643451922e-19)
(-0 6.172771835e-20 -3.397521709e-20)
(-0 3.165455361e-20 -1.655943376e-20)
(-0 1.217696446e-20 -6.070565381e-21)
(-0 3.500966175e-21 -1.672730203e-21)
(-0 9.376650639e-22 -4.307515939e-22)
(-0 1.684085866e-22 -7.490126941e-23)
(-0 3.263906323e-23 -5.840674473e-24)
(-0 8.946348615e-25 7.157078892e-24)
(-0 -1.516588262e-23 2.670049757e-23)
(-0 -3.573925283e-24 2.941615425e-23)
(-0 1.640213128e-23 -6.066541705e-24)
(-0 -6.080527679e-24 3.990346289e-24)
(-0 2.179797611e-24 1.556998294e-24)
(-0 0 0)
(-0 0 -0)
(-0 0 -0)
(-0 -0 0)
(-0 -0 0)
(-0 -0 0)
(-0 -0 -0)
(-0 -0 0)
(-0 -0 0)
(-0 0 0)
(-0 0 0)
(-0 1.762946221e-13 -2.810479615e-12)
(-0 6.986206787e-13 -2.331270245e-12)
(-0 6.214957251e-13 -9.472681131e-13)
(-0 1.290697419e-11 -1.218044555e-11)
(-0 7.499915918e-11 -4.874793988e-11)
(-0 5.228114642e-11 -2.346022117e-11)
(-0 2.465889811e-06 -5.688971353e-07)
(-0 5.240903401e-05 -18.46861694)
(-0 1.696618086e-06 -12.45093619)
(-0 1.588642628e-08 -1.974387659e-08)
(-0 3.042943638e-13 -4.146389987e-13)
(-0 2.208236316e-14 -3.11564025e-14)
(-0 2.901029302e-14 -4.029568804e-14)
(-0 1.878663582e-14 -2.478316703e-14)
(-0 2.397370557e-14 -2.939569297e-14)
(-0 1.331928247e-14 -1.502107689e-14)
(-0 6.959188413e-15 -7.194728343e-15)
(-0 2.573207344e-15 -2.440885891e-15)
(-0 1.910193741e-15 -1.667595034e-15)
(-0 6.314685155e-16 -5.093861214e-16)
(-0 1.316798343e-16 -9.85746972e-17)
(-0 6.266307908e-17 -4.37172248e-17)
(-0 1.158400778e-17 -7.56208255e-18)
(-0 1.714313595e-17 -1.051079862e-17)
(-0 2.750338816e-18 -1.589212701e-18)
(-0 3.420037867e-19 -1.868265138e-19)
(-0 2.281868236e-19 -1.181821066e-19)
(-0 4.31693407e-20 -2.12544285e-20)
(-0 2.074663246e-20 -9.729777734e-21)
(-0 9.147141497e-21 -4.090067767e-21)
(-0 1.58782879e-21 -6.723712414e-22)
(-0 2.997789056e-22 -1.208846274e-22)
(-0 6.094985584e-23 -1.837920911e-23)
(-0 1.221507302e-23 -4.886029208e-24)
(-0 3.321661234e-24 2.048357761e-23)
(-0 -1.881372938e-23 2.232562553e-23)
(-0 -3.875504669e-25 4.650605603e-24)
(-0 -2.933117785e-24 -2.095084132e-25)
(-0 2.335497441e-24 1.556998294e-25)
(-0 0 -0)
(-0 0 -0)
(-0 0 -0)
(-0 0 0)
(-0 -0 0)
(-0 -0 -0)
(-0 -0 0)
(-0 -0 0)
(-0 -0 0)
(-0 0 0)
(-0 0 -0)
(-0 -1.20548646e-13 -3.761565779e-12)
(-0 2.381963761e-14 -2.874825182e-13)
(-0 2.511670544e-13 -5.867267183e-13)
(-0 6.939724277e-12 -8.041568364e-12)
(-0 1.239079482e-11 -8.942702249e-12)
(-0 7.364507647e-11 -3.478861856e-11)
(-0 2.95789725e-06 -7.493899032e-07)
(-0 6.488491865e-05 -32.85973373)
(-0 2.173605755e-06 -24.8261353)
(-0 2.276073494e-08 -4.010731916e-08)
(-0 8.000559569e-13 -1.391455323e-12)
(-0 1.787154534e-13 -2.917535788e-13)
(-0 8.83797244e-14 -1.316916204e-13)
(-0 8.950053394e-14 -1.202566668e-13)
(-0 6.57493038e-14 -7.944486544e-14)
(-0 1.822698616e-14 -1.985197056e-14)
(-0 1.605774515e-14 -1.584091489e-14)
(-0 5.596935139e-15 -5.029985207e-15)
(-0 4.072936946e-15 -3.354525704e-15)
(-0 7.347320643e-16 -5.5775624e-16)
(-0 2.739323004e-16 -1.926894752e-16)
(-0 7.879715265e-17 -5.16094867e-17)
(-0 5.053903979e-17 -3.095667823e-17)
(-0 4.448489759e-18 -2.558378769e-18)
(-0 5.3768491e-18 -2.913751997e-18)
(-0 2.10208802e-18 -1.076826446e-18)
(-0 4.578166913e-19 -2.22342618e-19)
(-0 1.821613027e-19 -8.409276074e-20)
(-0 5.873556829e-20 -2.58312016e-20)
(-0 1.576756682e-20 -6.616908133e-21)
(-0 3.47488596e-21 -1.391309996e-21)
(-0 5.390146194e-22 -2.03790574e-22)
(-0 1.529991388e-22 -5.068096472e-23)
(-0 4.300777809e-23 -1.587979499e-23)
(-0 9.669564683e-24 -7.079502714e-24)
(-0 -1.823958201e-23 -1.196038165e-23)
(-0 -4.425254331e-24 1.211122238e-23)
(-0 -9.096648519e-24 8.269680472e-25)
(-0 2.075997725e-24 4.082795526e-24)
(-0 0 0)
(-0 0 -0)
(-0 0 -0)
(-0 0 -0)
(-0 -0 -0)
(-0 -0 -0)
(-0 -0 0)
(-0 -0 0)
(-0 -0 0)
(-0 0 0)
(-0 0 -0)
(-0 -5.371753464e-13 -4.975318196e-12)
(-0 -3.953329187e-13 -2.67819062e-12)
(-0 3.178402648e-13 -2.029632605e-12)
(-0 5.555254749e-12 -8.831725126e-12)
(-0 1.692458797e-11 -1.415371241e-11)
(-0 3.480088753e-11 -1.766500063e-11)
(-0 3.052318049e-06 -8.659595889e-07)
(-0 8.120398963e-05 -60.94968498)
(-0 2.922175586e-06 -50.59831776)
(-0 3.634014677e-08 -8.313307715e-08)
(-0 5.206495913e-13 -1.045384519e-12)
(-0 1.897200372e-13 -3.292812766e-13)
(-0 3.207027688e-13 -4.821064722e-13)
(-0 1.501234777e-13 -1.971301591e-13)
(-0 4.497194467e-14 -5.211339889e-14)
(-0 1.403227204e-14 -1.44960704e-14)
(-0 2.601828767e-14 -2.418836975e-14)
(-0 7.609877309e-15 -6.420850669e-15)
(-0 8.190037352e-15 -6.319099909e-15)
(-0 4.950309508e-15 -3.515925087e-15)
(-0 1.018587673e-15 -6.698619832e-16)
(-0 2.549217306e-16 -1.560332703e-16)
(-0 5.953254278e-17 -3.407022437e-17)
(-0 3.077842478e-17 -1.653648314e-17)
(-0 6.037190913e-18 -3.056221342e-18)
(-0 6.161305602e-18 -2.948420849e-18)
(-0 2.069494399e-18 -9.389044226e-19)
(-0 5.642999642e-19 -2.433646639e-19)
(-0 2.072651144e-20 -8.518211989e-21)
(-0 2.004081649e-20 -7.857424203e-21)
(-0 5.637735621e-21 -2.115938987e-21)
(-0 1.563546403e-21 -5.553853637e-22)
(-0 3.986531188e-22 -1.319979399e-22)
(-0 4.903278652e-23 -1.573326172e-23)
(-0 7.907756804e-24 -1.526380964e-23)
(-0 3.240448546e-24 -2.227808375e-24)
(-0 1.159433165e-23 1.051578917e-23)
(-0 -1.593943308e-24 1.593943308e-24)
(-0 1.281928595e-24 1.610628235e-24)
(-0 0 0)
(-0 0 -0)
(-0 0 -0)
(-0 0 -0)
(-0 -0 -0)
(-0 -0 -0)
(-0 -0 0)
(-0 -0 0)
(-0 -0 0)
(-0 0 0)
(-0 0 0)
(-0 -3.06044675e-13 -2.467693621e-12)
(-0 -1.147790196e-12 -3.660768597e-12)
(-0 -1.841149149e-13 -1.215823877e-12)
(-0 2.072163099e-13 -5.966465667e-13)
(-0 2.178457005e-11 -2.252542756e-11)
(-0 2.409792783e-11 -1.35961728e-11)
(-0 3.91593655e-06 -1.230209322e-06)
(-0 0.0001140673418 -116.1287452)
(-0 4.080904102e-06 -103.0377825)
(-0 4.534522003e-08 -1.21326719e-07)
(-0 2.847689774e-13 -6.041362683e-13)
(-0 1.182497064e-12 -2.049468834e-12)
(-0 4.62489765e-13 -6.729317001e-13)
(-0 2.468404136e-13 -3.082966183e-13)
(-0 6.266613464e-14 -6.839269244e-14)
(-0 7.64732557e-14 -7.398993508e-14)
(-0 9.965940949e-15 -8.649846941e-15)
(-0 2.604433175e-14 -2.047917006e-14)
(-0 8.648393056e-15 -6.212359919e-15)
(-0 1.006953608e-14 -6.654813698e-15)
(-0 1.831211201e-15 -1.120282065e-15)
(-0 1.049620642e-15 -5.975775232e-16)
(-0 1.188298325e-16 -6.325359007e-17)
(-0 3.196999993e-17 -1.59767166e-17)
(-0 5.701451858e-17 -2.684748317e-17)
(-0 1.711388289e-17 -7.618320122e-18)
(-0 2.95654747e-18 -1.247855006e-18)
(-0 8.43177976e-19 -3.383128818e-19)
(-0 2.737503674e-19 -1.046695217e-19)
(-0 3.466484431e-20 -1.265625484e-20)
(-0 1.132622555e-20 -3.96001883e-21)
(-0 3.387957424e-21 -1.128579186e-21)
(-0 5.466808024e-22 -1.701869403e-22)
(-0 1.216649286e-22 -2.481446033e-23)
(-0 3.059760207e-23 3.901707646e-24)
(-0 1.358575365e-23 1.81143382e-23)
(-0 -6.38202024e-36 7.72129532e-24)
(-0 -5.374411119e-24 -3.297934096e-24)
(-0 0 -0)
(-0 0 -0)
(-0 0 0)
(-0 0 0)
(-0 0 0)
(-0 -0 0)
(-0 -0 0)
(-0 -0 0)
(-0 -0 0)
(-0 -0 0)
(-0 0 0)
(-0 0 0)
(-0 -1.137743071e-13 -9.659974023e-13)
(-0 -1.182226784e-12 -3.224870492e-12)
(-0 -9.409299601e-13 -2.179754479e-12)
(-0 8.841572733e-15 -9.779190161e-13)
(-0 2.428496045e-12 -3.544127932e-12)
(-0 3.931216852e-11 -2.596515198e-11)
(-0 0.0001189883831 -8.141006572e-05)
(-0 0.0001613403324 -224.4397852)
(-0 5.910654868e-06 -207.0108474)
(-0 6.344153849e-08 -1.800589551e-07)
(-0 2.340922605e-12 -4.908650867e-12)
(-0 1.572525849e-12 -2.607968884e-12)
(-0 8.465319175e-13 -1.159852489e-12)
(-0 7.453432388e-13 -8.692952769e-13)
(-0 3.659329327e-13 -3.7127778e-13)
(-0 1.738744669e-13 -1.560208936e-13)
(-0 1.774142333e-13 -1.426325016e-13)
(-0 1.326355918e-14 -9.654470146e-15)
(-0 2.406060526e-14 -1.599477448e-14)
(-0 1.542261909e-14 -9.431911822e-15)
(-0 5.762763998e-15 -3.262456204e-15)
(-0 9.594580526e-16 -5.055284233e-16)
(-0 6.400181125e-16 -3.153211374e-16)
(-0 4.319912339e-16 -1.998334164e-16)
(-0 1.184613755e-16 -5.164049083e-17)
(-0 8.362401247e-18 -3.446535666e-18)
(-0 6.891080804e-18 -2.693085846e-18)
(-0 3.514828286e-18 -1.305948238e-18)
(-0 4.109421965e-19 -1.455184079e-19)
(-0 6.82745447e-20 -2.309657553e-20)
(-0 2.810902235e-20 -9.104068417e-21)
(-0 5.748709665e-21 -1.785049292e-21)
(-0 1.233142649e-21 -3.69569115e-22)
(-0 3.245779396e-22 -8.079321007e-23)
(-0 6.163730513e-23 1.398692693e-23)
(-0 5.258312091e-24 1.402216558e-23)
(-0 -1.345833031e-23 2.770832711e-24)
(-0 -2.429480385e-24 -1.393964155e-24)
(-0 0 -0)
(-0 0 0)
(-0 0 0)
(-0 0 0)
(-0 0 -0)
(-0 -0 0)
(-0 -0 0)
(-0 -0 0)
(-0 -0 0)
(-0 -0 -0)
(-0 0 -0)
(-0 0 0)
(-0 -7.234143611e-15 -6.285034806e-14)
(-0 -6.353683499e-13 -1.745088504e-12)
(-0 -1.902919136e-12 -3.187653877e-12)
(-0 -5.175637803e-13 -1.414478417e-12)
(-0 4.421890831e-13 -1.301804118e-12)
(-0 2.652832097e-12 -2.228084546e-12)
(-0 0.0001557960017 -0.0001597098184)
(-0 0.0001086184741 -432.656777)
(-0 9.414806298e-06 -406.1856348)
(-0 1.117723807e-07 -3.102104506e-07)
(-0 6.315017038e-12 -1.248197291e-11)
(-0 8.576317023e-13 -1.321907394e-12)
(-0 1.270632163e-12 -1.608090212e-12)
(-0 1.67910654e-12 -1.803886677e-12)
(-0 6.950298855e-13 -6.487593816e-13)
(-0 6.472753203e-13 -5.34086743e-13)
(-0 1.001243724e-13 -7.401228038e-14)
(-0 7.977870882e-14 -5.339842067e-14)
(-0 3.363785731e-14 -2.056596091e-14)
(-0 1.058588427e-14 -5.955355484e-15)
(-0 5.786492849e-15 -3.014115069e-15)
(-0 4.541283896e-15 -2.201994423e-15)
(-0 3.083927386e-15 -1.398503495e-15)
(-0 4.371549006e-16 -1.861658587e-16)
(-0 1.825987332e-16 -7.329057421e-17)
(-0 7.624835848e-17 -2.89385494e-17)
(-0 2.336758562e-17 -8.410516882e-18)
(-0 5.493765972e-18 -1.880127175e-18)
(-0 5.568695475e-19 -1.816401701e-19)
(-0 2.138769268e-19 -6.663937511e-20)
(-0 3.686076512e-20 -1.099841451e-20)
(-0 7.663184508e-21 -2.194348473e-21)
(-0 2.411680308e-21 -6.691560897e-22)
(-0 2.989340336e-22 -7.689728482e-23)
(-0 7.952584033e-23 -9.992775748e-24)
(-0 1.460168618e-24 2.233199063e-24)
(-0 -9.099935399e-24 1.436831905e-24)
(-0 -0 -0)
(-0 0 0)
(-0 0 0)
(-0 0 0)
(-0 0 0)
(-0 0 -0)
(-0 -0 -0)
(-0 -0 0)
(-0 -0 0)
(-0 -0 0)
(-0 -0 -0)
(-0 0 0)
(-0 0 0)
(-0 -4.18840197e-23 -3.661718182e-22)
(-0 -2.118558807e-13 -5.587757708e-13)
(-0 -1.680799216e-12 -2.513254682e-12)
(-0 -1.743733205e-12 -2.466169029e-12)
(-0 -9.957573422e-14 -1.36317283e-12)
(-0 2.885162972e-12 -3.566629403e-12)
(-0 1.16347669e-05 -5.887984093e-06)
(-0 5.062836921e-05 -819.2242875)
(-0 1.652654919e-05 -771.3346933)
(-0 1.024743903e-07 -2.613553627e-07)
(-0 2.676825677e-12 -4.822341314e-12)
(-0 3.003542581e-12 -4.212656923e-12)
(-0 2.298927207e-12 -2.647931219e-12)
(-0 1.589990105e-12 -1.555590197e-12)
(-0 1.026273149e-12 -8.730339085e-13)
(-0 3.292775554e-13 -2.477850865e-13)
(-0 1.351556176e-13 -9.117127527e-14)
(-0 2.277488695e-13 -1.391847524e-13)
(-0 5.668696028e-14 -3.165909283e-14)
(-0 7.191435609e-14 -3.697104059e-14)
(-0 4.131147184e-14 -1.967097883e-14)
(-0 9.980226995e-15 -4.424993029e-15)
(-0 2.302591025e-15 -9.550285454e-16)
(-0 2.027588738e-15 -7.899052303e-16)
(-0 5.550394487e-16 -2.038366374e-16)
(-0 1.094304124e-16 -3.8006632e-17)
(-0 1.837127301e-17 -6.051754798e-18)
(-0 2.406247347e-18 -7.537694632e-19)
(-0 1.358173966e-19 -4.055417677e-20)
(-0 3.94797431e-20 -1.126127835e-20)
(-0 5.975939371e-21 -1.631900292e-21)
(-0 6.711582059e-21 -1.757286261e-21)
(-0 2.669409108e-21 -6.673522771e-22)
(-0 4.077403549e-22 -9.929473186e-23)
(-0 1.340651558e-22 -3.5841909e-23)
(-0 1.049992788e-23 -8.243745026e-24)
(-0 -1.405679319e-23 5.706222977e-24)
(-0 -1.193698692e-25 1.055298844e-25)
(-0 0 0)
(-0 0 0)
(-0 0 0)
(-0 0 0)
(-0 0 -0)
(-0 -0 -0)
(-0 -0 0)
(-0 -0 -0)
(-0 -0 -0)
(-0 -0 0)
(-0 0 0)
(-0 0 -0)
(-0 -6.936075119e-23 -6.060216665e-22)
(-0 -1.856456891e-18 -4.831606366e-18)
(-0 -9.461826211e-13 -1.309781995e-12)
(-0 -2.790838856e-12 -2.832334208e-12)
(-0 -1.30197492e-12 -2.33824726e-12)
(-0 1.729071941e-12 -4.627025944e-12)
(-0 1.07096805e-06 -7.088769347e-07)
(-0 0.0001992796748 -1497.764755)
(-0 2.958772229e-05 -1405.059703)
(-0 1.178931087e-08 -2.644732362e-08)
(-0 2.691803914e-12 -4.312293298e-12)
(-0 5.551923235e-12 -6.968823567e-12)
(-0 3.553587165e-12 -3.678019027e-12)
(-0 3.652656231e-12 -3.220144166e-12)
(-0 6.53329392e-13 -5.017810801e-13)
(-0 4.739085502e-13 -3.224344998e-13)
(-0 1.036550716e-12 -6.328695755e-13)
(-0 1.856257394e-13 -1.02761724e-13)
(-0 3.56835782e-13 -1.806433191e-13)
(-0 1.870180385e-13 -8.719489391e-14)
(-0 2.574718102e-14 -1.112312183e-14)
(-0 2.401110808e-14 -9.662140518e-15)
(-0 5.506345031e-15 -2.073354656e-15)
(-0 4.92353061e-16 -1.741742282e-16)
(-0 2.345238089e-16 -7.82245276e-17)
(-0 1.279912365e-16 -4.03805194e-17)
(-0 4.145620497e-17 -1.24069083e-17)
(-0 1.435133017e-17 -4.084849972e-18)
(-0 2.250196603e-18 -6.10572582e-19)
(-0 5.794252721e-19 -1.502040734e-19)
(-0 1.418087752e-19 -3.518816452e-20)
(-0 4.635456161e-20 -1.103228843e-20)
(-0 8.555307724e-21 -1.955399557e-21)
(-0 1.815944095e-21 -4.072089096e-22)
(-0 3.936649198e-22 -1.068346029e-22)
(-0 7.315608505e-23 -3.805939627e-23)
(-0 1.031662391e-23 -2.879057834e-24)
(-0 -6.059666757e-24 1.354513746e-23)
(-0 0 0)
(-0 0 0)
(-0 0 0)
(-0 -0 0)
(-0 0 -0)
(-0 -0 -0)
(-0 -0 -0)
(-0 -0 -0)
(-0 -0 -0)
(-0 -0 0)
(-0 0 -0)
(-0 0 -0)
(-0 -6.008282878e-19 -5.172859784e-18)
(-0 -1.499144418e-18 -3.785969929e-18)
(-0 -1.311002425e-13 -1.727720423e-13)
(-0 -2.106208779e-12 -1.840146207e-12)
(-0 -2.137156918e-12 -1.950708174e-12)
(-0 -7.497663281e-13 -4.958712993e-12)
(-0 3.935986639e-07 -3.816651726e-07)
(-0 0.0002174202624 -2599.865807)
(-0 5.563719332e-05 -2433.440655)
(-0 2.776293642e-07 -5.316341876e-07)
(-0 2.133854157e-11 -2.982447705e-11)
(-0 1.589287091e-11 -1.759779468e-11)
(-0 1.006866608e-11 -9.252120472e-12)
(-0 1.00258952e-11 -7.878889169e-12)
(-0 2.095788986e-12 -1.438711608e-12)
(-0 5.023760028e-12 -3.060788253e-12)
(-0 2.95272584e-12 -1.616552778e-12)
(-0 1.056592958e-12 -5.250224127e-13)
(-0 1.151321566e-13 -5.235477358e-14)
(-0 2.820890757e-13 -1.182102009e-13)
(-0 2.931021494e-14 -1.138618497e-14)
(-0 2.585561573e-14 -9.359213554e-15)
(-0 1.091141385e-14 -3.696965562e-15)
(-0 3.142445168e-15 -1.000545435e-15)
(-0 1.144927554e-15 -3.437838152e-16)
(-0 3.531148235e-16 -1.003076947e-16)
(-0 9.318197515e-17 -2.511288607e-17)
(-0 3.058229919e-17 -7.839707984e-18)
(-0 7.004287873e-18 -1.71188329e-18)
(-0 9.54581784e-19 -2.229120761e-19)
(-0 2.604164105e-19 -5.821124391e-20)
(-0 5.95397646e-20 -1.27647118e-20)
(-0 1.171433443e-20 -2.414689834e-21)
(-0 4.113949546e-21 -8.227899091e-22)
(-0 7.677438579e-22 -1.789814037e-22)
(-0 9.772161934e-23 -3.031510089e-23)
(-0 5.433009399e-23 -3.018338555e-23)
(-0 1.158745705e-23 5.579145986e-24)
(-0 6.573992796e-26 2.037937767e-24)
(-0 0 -0)
(-0 0 -0)
(-0 -0 -0)
(-0 -0 0)
(-0 -0 -0)
(-0 -0 -0)
(-0 -0 -0)
(-0 -0 -0)
(-0 -0 -0)
(-0 0 -0)
(-0 0 -0)
(-0 -4.494733515e-19 -3.728811441e-18)
(-0 -2.505547693e-18 -6.013473371e-18)
(-0 -3.615797896e-18 -4.510221806e-18)
(-0 -9.978712448e-13 -8.104352427e-13)
(-0 -2.439426053e-12 -1.609481617e-12)
(-0 -2.532316399e-12 -3.057891246e-12)
(-0 3.869064062e-07 -7.526420025e-07)
(-0 0.0001993166642 -4222.007199)
(-0 8.352317807e-05 -3972.220596)
(-0 5.515318795e-07 -8.830871473e-07)
(-0 9.599048331e-12 -1.151953957e-11)
(-0 2.41111579e-11 -2.323008397e-11)
(-0 1.936924204e-11 -1.560497305e-11)
(-0 2.039010914e-12 -1.411529583e-12)
(-0 1.123914436e-11 -6.817575801e-12)
(-0 1.238985618e-11 -6.684348063e-12)
(-0 2.048968878e-12 -9.948105894e-13)
(-0 3.42276938e-12 -1.509940234e-12)
(-0 3.915316983e-13 -1.581949481e-13)
(-0 4.468505513e-13 -1.664820747e-13)
(-0 7.700613934e-14 -2.660919265e-14)
(-0 1.201099356e-14 -3.86880974e-15)
(-0 5.131604913e-15 -1.5476251e-15)
(-0 3.023011003e-15 -8.569716468e-16)
(-0 9.780829532e-16 -2.615357573e-16)
(-0 2.24532193e-16 -5.680941234e-17)
(-0 5.396426149e-17 -1.295561902e-17)
(-0 6.598419841e-18 -1.50699165e-18)
(-0 4.802118391e-18 -1.045758804e-18)
(-0 7.635452202e-19 -1.588850208e-19)
(-0 3.034716517e-19 -6.045669994e-20)
(-0 1.240991431e-19 -2.371029576e-20)
(-0 2.697245151e-20 -4.94996129e-21)
(-0 5.837036744e-21 -1.044187298e-21)
(-0 1.089298607e-21 -1.99591134e-22)
(-0 1.93718962e-22 -3.813180053e-23)
(-0 4.93555188e-23 -1.507511662e-23)
(-0 2.999524175e-23 -1.41941769e-23)
(-0 1.557214528e-24 -4.775457887e-24)
(-0 0 -0)
(-0 0 -0)
(-0 0 -0)
(-0 -0 -0)
(-0 -0 -0)
(-0 -0 0)
(-0 -0 -0)
(-0 -0 0)
(-0 -0 -0)
(-0 0 -0)
(-0 0 -0)
(-0 -5.590583938e-47 -4.280079123e-46)
(-0 -1.882301632e-18 -4.147257541e-18)
(-0 -1.683080891e-18 -1.927901303e-18)
(-0 -1.844086858e-13 -1.416548553e-13)
(-0 -2.014484516e-12 -1.208910867e-12)
(-0 -1.802139226e-12 -1.180082429e-12)
(-0 -7.891502815e-08 -6.750270799e-07)
(-0 0.0001213346984 -6343.407575)
(-0 -2.689741359e-05 -6059.837461)
(-0 1.822230178e-05 -2.434463984e-05)
(-0 4.37379176e-11 -4.439457649e-11)
(-0 2.065114348e-11 -1.706324501e-11)
(-0 3.069164751e-11 -2.137600938e-11)
(-0 6.409544258e-12 -3.854823333e-12)
(-0 2.29778709e-11 -1.214834395e-11)
(-0 2.237469905e-12 -1.054422042e-12)
(-0 5.10384183e-12 -2.167888845e-12)
(-0 2.705947657e-12 -1.045492454e-12)
(-0 1.539618241e-12 -5.45277231e-13)
(-0 5.196534518e-13 -1.698125845e-13)
(-0 2.438605616e-13 -7.394506629e-14)
(-0 7.494090046e-14 -2.119064389e-14)
(-0 1.165017989e-14 -3.085348906e-15)
(-0 5.555855637e-16 -1.383388104e-16)
(-0 1.115004356e-15 -2.619306977e-16)
(-0 2.801163154e-16 -6.227414262e-17)
(-0 1.960904512e-16 -4.137113712e-17)
(-0 6.882662466e-17 -1.381555214e-17)
(-0 1.583232779e-17 -3.030594549e-18)
(-0 3.243611851e-18 -5.93334557e-19)
(-0 9.168407717e-19 -1.605843647e-19)
(-0 1.169880262e-19 -1.965115728e-20)
(-0 2.32657049e-20 -3.75844961e-21)
(-0 6.600873908e-21 -1.031692313e-21)
(-0 1.211152384e-21 -1.798235359e-22)
(-0 3.710820867e-22 -4.89237577e-23)
(-0 8.691815478e-23 -5.432384674e-24)
(-0 2.025369123e-23 -7.656883271e-24)
(-0 -1.038575368e-25 -2.908011032e-24)
(-0 1.037998862e-25 -7.957991279e-26)
(-0 0 -0)
(-0 0 0)
(-0 0 -0)
(-0 -0 0)
(-0 -0 0)
(-0 -0 0)
(-0 -0 0)
(-0 -0 -0)
(-0 0 -0)
(-0 0 0)
(-0 -5.904837032e-43 -3.965145901e-42)
(-0 -4.011957063e-43 -7.754773437e-43)
(-0 -4.866891061e-20 -4.900958075e-20)
(-0 -5.250051701e-28 -3.605706873e-28)
(-0 -4.123124768e-13 -2.283328111e-13)
(-0 -3.347056076e-13 -1.70342112e-13)
(-0 -5.687401554e-07 -6.142057294e-07)
(-0 -4.924492818e-05 -8754.914833)
(-0 -0.0002508582098 -8566.065807)
(-0 0.000151267829 -0.0002006243508)
(-0 3.69588085e-11 -3.121433704e-11)
(-0 4.093070585e-11 -2.851688855e-11)
(-0 1.003914313e-10 -5.941845898e-11)
(-0 2.349481383e-11 -1.2066386e-11)
(-0 2.680586905e-11 -1.214068857e-11)
(-0 2.260362652e-11 -9.144847616e-12)
(-0 6.949800222e-13 -2.538095063e-13)
(-0 5.371622552e-12 -1.786380791e-12)
(-0 1.487332882e-12 -4.537610404e-13)
(-0 3.07589947e-13 -8.663733266e-14)
(-0 2.93094058e-14 -7.663958991e-15)
(-0 7.56181975e-14 -1.844539588e-14)
(-0 2.462063955e-14 -5.626431547e-15)
(-0 4.409042481e-15 -9.475472754e-16)
(-0 1.513523544e-15 -3.069344139e-16)
(-0 6.76832703e-16 -1.299170165e-16)
(-0 2.539377683e-16 -4.626379071e-17)
(-0 4.308397475e-17 -7.468766507e-18)
(-0 1.221666445e-17 -2.019760217e-18)
(-0 3.902253384e-18 -6.165784502e-19)
(-0 1.429093695e-18 -2.162243411e-19)
(-0 3.045806599e-19 -4.420339939e-20)
(-0 6.674885013e-20 -9.31095278e-21)