/*--------------------------------*- C++ -*----------------------------------*\
  =========                 |
  \\      /  F ield         | OpenFOAM: The Open Source CFD Toolbox
   \\    /   O peration     | Website:  https://openfoam.org
    \\  /    A nd           | Version:  6
     \\/     M anipulation  |
\*---------------------------------------------------------------------------*/
FoamFile
{
    version     2.0;
    format      ascii;
    class       volScalarField;
    location    "0.08";
    object      Num_divU;
}
// * * * * * * * * * * * * * * * * * * * * * * * * * * * * * * * * * * * * * //

dimensions      [0 0 -1 0 0 0 0];

internalField   nonuniform List<scalar> 
2500
(
-5.656977919e-07
5.268195678e-07
-5.490294132e-08
-5.066992208e-08
-1.1578888e-07
-2.888061473e-07
-3.757070771e-07
-2.95536842e-07
-1.875251303e-07
-9.607510429e-22
-2.167898535e-17
-4.873699216e-17
-7.415568493e-17
-9.888160941e-17
-1.232853559e-16
-1.474217711e-16
-1.712658357e-16
-1.947763175e-16
-2.179100283e-16
-2.40624931e-16
-2.628812828e-16
-2.846414861e-16
-3.058701098e-16
-3.265340619e-16
-3.466026275e-16
-3.660473303e-16
-3.848421298e-16
-4.02963491e-16
-4.203904707e-16
-4.371046163e-16
-4.530898495e-16
-4.683322825e-16
-4.82820107e-16
-4.965434494e-16
-5.094943481e-16
-5.216665654e-16
-5.330555326e-16
-5.436580904e-16
-5.534723341e-16
-5.624974567e-16
-5.70733573e-16
-5.781814976e-16
-5.848427416e-16
-5.907191119e-16
-5.958129933e-16
-6.001268886e-16
-6.03663653e-16
-6.06426178e-16
-6.084169183e-16
-6.096341103e-16
-3.556758071e-07
4.362510111e-07
9.726655982e-08
8.506055633e-08
-1.247277613e-07
-4.991001021e-07
-4.444211659e-07
2.150861061e-07
1.456407062e-07
-4.327041746e-17
-9.06609437e-17
-1.373507314e-16
-1.817836767e-16
-2.254030332e-16
-2.684959878e-16
-3.11050421e-16
-3.529991136e-16
-3.942667318e-16
-4.347788625e-16
-4.744642973e-16
-5.132564387e-16
-5.510929013e-16
-5.879150924e-16
-6.236682897e-16
-6.583019741e-16
-6.917701056e-16
-7.240312489e-16
-7.550483394e-16
-7.847888646e-16
-8.132242616e-16
-8.403299736e-16
-8.660851606e-16
-8.90472423e-16
-9.134777936e-16
-9.35090278e-16
-9.553018697e-16
-9.741069462e-16
-9.915021836e-16
-1.007486174e-15
-1.022059117e-15
-1.035222495e-15
-1.046978971e-15
-1.057331972e-15
-1.066285847e-15
-1.073845752e-15
-1.080018329e-15
-1.084813368e-15
-1.088249181e-15
-1.090370663e-15
-4.813204357e-16
-1.622797851e-07
4.863577524e-07
1.311195238e-07
-1.699753451e-07
-2.193391978e-07
-6.940320147e-07
-1.005217752e-06
-5.323640672e-07
6.197182044e-08
-3.54443185e-17
-7.55263402e-17
-1.158757897e-16
-1.544938476e-16
-1.925059427e-16
-2.300925936e-16
-2.67221962e-16
-3.03830092e-16
-3.398506056e-16
-3.752187558e-16
-4.098725497e-16
-4.437534895e-16
-4.768067661e-16
-5.089807057e-16
-5.402271974e-16
-5.705019597e-16
-5.997646108e-16
-6.279787632e-16
-6.551119121e-16
-6.811352633e-16
-7.060235402e-16
-7.29755069e-16
-7.523114105e-16
-7.736771426e-16
-7.938399237e-16
-8.127899714e-16
-8.3052015e-16
-8.470253505e-16
-8.623026324e-16
-8.763505494e-16
-8.891692058e-16
-9.007597564e-16
-9.111243186e-16
-9.202657344e-16
-9.281872855e-16
-9.348926882e-16
-9.40385683e-16
-9.446693869e-16
-9.477432072e-16
-9.4958893e-16
-4.689280313e-16
-5.558699671e-08
-1.39092442e-07
2.426114303e-07
8.493352666e-08
2.105114487e-07
-1.264541792e-07
-4.553580101e-07
-2.589140537e-07
-1.44187892e-07
-3.488608236e-17
-7.417957342e-17
-1.138684769e-16
-1.519172626e-16
-1.893936026e-16
-2.264572493e-16
-2.630716502e-16
-2.991724053e-16
-3.346940311e-16
-3.695728842e-16
-4.037477104e-16
-4.371607381e-16
-4.697577765e-16
-5.014879639e-16
-5.323038811e-16
-5.621618785e-16
-5.910221101e-16
-6.188487336e-16
-6.456096562e-16
-6.712764226e-16
-6.958241803e-16
-7.19231482e-16
-7.414801119e-16
-7.625549501e-16
-7.824438023e-16
-8.011370536e-16
-8.186275604e-16
-8.349104829e-16
-8.499826855e-16
-8.638429088e-16
-8.764911051e-16
-8.879283425e-16
-8.98156621e-16
-9.071785132e-16
-9.149968956e-16
-9.216147089e-16
-9.270344116e-16
-9.312572169e-16
-9.342811432e-16
-9.36098475e-16
-4.678490798e-16
4.789419863e-07
-4.522602646e-07
-1.133992931e-07
-9.926323596e-08
1.890395949e-07
-1.224028553e-08
-1.839558118e-07
4.439512813e-08
-2.10587666e-07
-3.485989767e-17
-7.409885885e-17
-1.137362759e-16
-1.517428577e-16
-1.89180518e-16
-2.26206278e-16
-2.627834551e-16
-2.988471762e-16
-3.343321034e-16
-3.691745359e-16
-4.033134761e-16
-4.366911012e-16
-4.692531532e-16
-5.009489173e-16
-5.317310564e-16
-5.615559621e-16
-5.903839256e-16
-6.181791309e-16
-6.449095766e-16
-6.705468629e-16
-6.950661338e-16
-7.184460143e-16
-7.406683479e-16
-7.617180039e-16
-7.815828375e-16
-8.002533186e-16
-8.177223204e-16
-8.339849282e-16
-8.490381249e-16
-8.628805481e-16
-8.75512122e-16
-8.869338979e-16
-8.971477835e-16
-9.06156089e-16
-9.139614272e-16
-9.205663264e-16
-9.259728474e-16
-9.30181797e-16
-9.331924214e-16
-9.35002121e-16
-4.678441126e-16
8.63143944e-07
8.145100437e-08
-5.375315567e-07
-4.280397729e-07
-1.408142644e-07
-2.282958175e-08
-1.801636942e-07
1.190887706e-07
-5.77006078e-08
-3.487581027e-17
-7.412475985e-17
-1.13776472e-16
-1.517937668e-16
-1.892403688e-16
-2.262739161e-16
-2.628586975e-16
-2.989298588e-16
-3.344219155e-16
-3.692710233e-16
-4.034161424e-16
-4.367994454e-16
-4.693666556e-16
-5.010669612e-16
-5.318530723e-16
-5.616814073e-16
-5.905123816e-16
-6.183101248e-16
-6.450426714e-16
-6.706816297e-16
-6.952021861e-16
-7.185829825e-16
-7.408058385e-16
-7.618557148e-16
-7.817204227e-16
-8.003904782e-16
-8.178587179e-16
-8.341203104e-16
-8.491721688e-16
-8.630129483e-16
-8.75642544e-16
-8.870619505e-16
-8.972729451e-16
-9.062777551e-16
-9.14078865e-16
-9.206785946e-16
-9.260788916e-16
-9.302808963e-16
-9.332847479e-16
-9.350898995e-16
-4.67946605e-16
7.396286916e-07
8.153374082e-07
-3.988907553e-07
-5.512403291e-07
-5.219699917e-07
-1.458023818e-07
-2.273751655e-07
-8.709704771e-08
1.402667416e-07
-3.489795585e-17
-7.415554857e-17
-1.138281543e-16
-1.518628542e-16
-1.893245206e-16
-2.263709813e-16
-2.629678269e-16
-2.990506651e-16
-3.345540704e-16
-3.694140511e-16
-4.03569582e-16
-4.369627433e-16
-4.6953915e-16
-5.012479799e-16
-5.32041939e-16
-5.618775381e-16
-5.907151063e-16
-6.185189102e-16
-6.452569903e-16
-6.709009434e-16
-6.954259701e-16
-7.188106586e-16
-7.410369147e-16
-7.620897005e-16
-7.819567975e-16
-8.006287643e-16
-8.180984856e-16
-8.34361074e-16
-8.494134846e-16
-8.632543058e-16
-8.758834346e-16
-8.873018595e-16
-8.97511259e-16
-9.065138436e-16
-9.14311975e-16
-9.209080068e-16
-9.263039061e-16
-9.305011318e-16
-9.335005204e-16
-9.353023323e-16
-4.680641812e-16
8.592706249e-08
9.197831145e-07
9.711835663e-08
-3.197012628e-07
-4.941299414e-07
-2.837097152e-07
-1.2530203e-07
-2.051903768e-07
2.005904055e-07
-3.491871284e-17
-7.418735524e-17
-1.138774835e-16
-1.519294037e-16
-1.894081989e-16
-2.264695308e-16
-2.63079429e-16
-2.991745465e-16
-3.346897222e-16
-3.695610579e-16
-4.037274507e-16
-4.371309854e-16
-4.697171862e-16
-5.014351865e-16
-5.322376405e-16
-5.620810951e-16
-5.90925959e-16
-6.187364969e-16
-6.454806994e-16
-6.711302383e-16
-6.956603108e-16
-7.190495201e-16
-7.412797188e-16
-7.623359021e-16
-7.822059281e-16
-8.008802646e-16
-8.183519366e-16
-8.346159138e-16
-8.496692637e-16
-8.635104684e-16
-8.761395415e-16
-8.875572808e-16
-8.977654999e-16
-9.067662846e-16
-9.145620373e-16
-9.211551284e-16
-9.26547694e-16
-9.307413925e-16
-9.337374435e-16
-9.355366468e-16
-4.681867304e-16
-5.614604558e-07
3.472301093e-07
2.533194671e-07
-6.055531919e-08
-1.748172697e-07
-1.901986013e-07
4.914176622e-08
1.374274423e-08
1.509869807e-07
-3.493394709e-17
-7.422123769e-17
-1.139255207e-16
-1.519912648e-16
-1.894876503e-16
-2.265656328e-16
-2.631895012e-16
-2.992974832e-16
-3.348245049e-16
-3.69707245e-16
-4.038846008e-16
-4.37298643e-16
-4.698948029e-16
-5.016221216e-16
-5.324333232e-16
-5.622849322e-16
-5.911373657e-16
-6.189549219e-16
-6.457056061e-16
-6.713610396e-16
-6.958964464e-16
-7.192904296e-16
-7.415248686e-16
-7.625847355e-16
-7.824579398e-16
-8.011349802e-16
-8.186087655e-16
-8.348744172e-16
-8.499288917e-16
-8.637707809e-16
-8.763999794e-16
-8.878173648e-16
-8.980246823e-16
-9.070240691e-16
-9.14817923e-16
-9.214087024e-16
-9.26798628e-16
-9.309896024e-16
-9.339831145e-16
-9.357801224e-16
-4.683117711e-16
-7.019752463e-07
-2.787169449e-07
1.976557265e-08
-1.61454075e-07
6.009136278e-08
3.615238822e-08
2.290618442e-07
3.632239365e-07
1.229345342e-07
-3.494453606e-17
-7.42530616e-17
-1.139733655e-16
-1.52048376e-16
-1.895610171e-16
-2.266569983e-16
-2.632962221e-16
-2.99417799e-16
-3.349570457e-16
-3.698511822e-16
-4.040395838e-16
-4.37464111e-16
-4.70070248e-16
-5.018070052e-16
-5.326270764e-16
-5.624869841e-16
-5.913471737e-16
-6.191719318e-16
-6.459292763e-16
-6.715908459e-16
-6.961318059e-16
-7.195307625e-16
-7.417696289e-16
-7.628334258e-16
-7.827099794e-16
-8.013898469e-16
-8.188660211e-16
-8.351335224e-16
-8.501893772e-16
-8.640321395e-16
-8.76661693e-16
-8.880789917e-16
-8.982856991e-16
-9.07284034e-16
-9.150764169e-16
-9.216653922e-16
-9.270532235e-16
-9.312420335e-16
-9.342334075e-16
-9.360285482e-16
-4.684375978e-16
-4.11610955e-07
-3.542047354e-07
-2.68133169e-07
-3.717948919e-07
-2.700524118e-08
2.800870318e-07
3.142693515e-07
5.9787119e-07
1.289963562e-07
-3.495482658e-17
-7.428010463e-17
-1.14022464e-16
-1.521029823e-16
-1.896283163e-16
-2.267418398e-16
-2.633976229e-16
-2.995337992e-16
-3.350858582e-16
-3.699917034e-16
-4.041910493e-16
-4.376260629e-16
-4.70242177e-16
-5.01988357e-16
-5.328173336e-16
-5.626855968e-16
-5.915536195e-16
-6.193856631e-16
-6.461498109e-16
-6.718175939e-16
-6.963642516e-16
-7.19768302e-16
-7.420117468e-16
-7.630795571e-16
-7.8295962e-16
-8.016425306e-16
-8.19121209e-16
-8.353907603e-16
-8.50448136e-16
-8.642919776e-16
-8.769221382e-16
-8.883395497e-16
-8.985459462e-16
-9.075435388e-16
-9.15334797e-16
-9.219223093e-16
-9.27308501e-16
-9.314954969e-16
-9.344850829e-16
-9.36278514e-16
-4.685625471e-16
-2.673813078e-08
-8.025048024e-08
-2.969572885e-07
-4.734608118e-07
-1.217951763e-07
4.207562638e-07
2.894670761e-07
6.755648284e-07
1.087053032e-07
-3.496847939e-17
-7.430569245e-17
-1.140742839e-16
-1.521609839e-16
-1.896935274e-16
-2.268208679e-16
-2.634928412e-16
-2.996440304e-16
-3.35209455e-16
-3.701273122e-16
-4.043377514e-16
-4.377831642e-16
-4.70409087e-16
-5.021646167e-16
-5.330024311e-16
-5.628790203e-16
-5.917548345e-16
-6.195941971e-16
-6.463650992e-16
-6.720391654e-16
-6.965915117e-16
-7.200007641e-16
-7.422488152e-16
-7.633207443e-16
-7.832044109e-16
-8.018904215e-16
-8.193717338e-16
-8.356434319e-16
-8.507025382e-16
-8.645475908e-16
-8.771785419e-16
-8.885963138e-16
-8.988026164e-16
-9.077997002e-16
-9.155901666e-16
-9.221765418e-16
-9.275613575e-16
-9.317468269e-16
-9.347348515e-16
-9.365266807e-16
-4.68684935e-16
5.781112453e-08
1.244535567e-07
-1.448365958e-07
-3.437939551e-07
-1.04165384e-07
3.259957396e-07
5.24763013e-07
3.867255479e-07
1.50196987e-07
-3.498675329e-17
-7.433089542e-17
-1.141212049e-16
-1.522234717e-16
-1.897610863e-16
-2.268970966e-16
-2.635826248e-16
-2.997479639e-16
-3.353266598e-16
-3.702566465e-16
-4.044781729e-16
-4.379338577e-16
-4.705694263e-16
-5.023341229e-16
-5.331806068e-16
-5.630654079e-16
-5.919489272e-16
-6.197954744e-16
-6.465730786e-16
-6.722532917e-16
-6.968113102e-16
-7.202257088e-16
-7.424783845e-16
-7.635544204e-16
-7.834417433e-16
-8.021308894e-16
-8.196148941e-16
-8.358888777e-16
-8.509497929e-16
-8.647962088e-16
-8.774280842e-16
-8.888463407e-16
-8.99052778e-16
-9.080496126e-16
-9.158394557e-16
-9.224249432e-16
-9.27808641e-16
-9.319928041e-16
-9.34979352e-16
-9.367697443e-16
-4.688031264e-16
-1.020682514e-07
9.700245369e-08
3.67555867e-08
-8.231444307e-08
-2.169956687e-07
3.961621622e-07
6.309450633e-07
-4.818862897e-07
2.734660836e-07
-3.500800898e-17
-7.435857984e-17
-1.141527408e-16
-1.522826092e-16
-1.898295728e-16
-2.269718992e-16
-2.636679283e-16
-2.998456525e-16
-3.354367981e-16
-3.703785842e-16
-4.046110366e-16
-4.380767055e-16
-4.707216357e-16
-5.024951666e-16
-5.333500567e-16
-5.632428359e-16
-5.92133839e-16
-6.199874033e-16
-6.467714833e-16
-6.724577631e-16
-6.970212603e-16
-7.204406803e-16
-7.426979102e-16
-7.637779826e-16
-7.836689016e-16
-8.023612366e-16
-8.198479644e-16
-8.361242277e-16
-8.51187007e-16
-8.650348901e-16
-8.776678174e-16
-8.890867246e-16
-8.992934226e-16
-9.082901917e-16
-9.160796275e-16
-9.226644132e-16
-9.280471353e-16
-9.322301589e-16
-9.352153964e-16
-9.370043361e-16
-4.689154156e-16
-2.653605056e-07
-2.109580545e-08
1.367311171e-07
1.13011736e-07
-9.439183147e-08
6.952103794e-08
3.201387494e-07
-1.336107345e-06
2.536764647e-07
-3.502510577e-17
-7.439658953e-17
-1.141750501e-16
-1.523330445e-16
-1.89894536e-16
-2.270441767e-16
-2.637488394e-16
-2.999370458e-16
-3.355394368e-16
-3.704921793e-16
-4.047349224e-16
-4.38210221e-16
-4.708640856e-16
-5.026460516e-16
-5.335089481e-16
-5.634093404e-16
-5.923075311e-16
-6.201677959e-16
-6.469581308e-16
-6.726501196e-16
-6.972189618e-16
-7.20643187e-16
-7.429047987e-16
-7.639888135e-16
-7.838832336e-16
-8.0257863e-16
-8.200680705e-16
-8.363466115e-16
-8.514113029e-16
-8.652607066e-16
-8.778947244e-16
-8.893144198e-16
-8.995214674e-16
-9.085182697e-16
-9.163074455e-16
-9.228916741e-16
-9.28273594e-16
-9.324555801e-16
-9.354396325e-16
-9.372271889e-16
-4.690202044e-16
-2.726163041e-07
-9.351006842e-08
1.561116486e-07
3.080753541e-07
-6.181141593e-08
-4.588767905e-07
1.258641696e-07
-1.40315548e-06
1.047944082e-07
-3.503068792e-17
-7.44324155e-17
-1.141965603e-16
-1.523732755e-16
-1.899508989e-16
-2.271104253e-16
-2.638236981e-16
-3.000213798e-16
-3.356337867e-16
-3.705964827e-16
-4.04848709e-16
-4.38332952e-16
-4.709952297e-16
-5.027850964e-16
-5.336554898e-16
-5.635629711e-16
-5.924678912e-16
-6.203344901e-16
-6.471306939e-16
-6.728281348e-16
-6.974019592e-16
-7.208307273e-16
-7.430964871e-16
-7.641842204e-16
-7.840820344e-16
-8.027803885e-16
-8.20272438e-16
-8.365532269e-16
-8.516197709e-16
-8.65470688e-16
-8.78105868e-16
-8.895263411e-16
-8.997338858e-16
-9.087308348e-16
-9.165198069e-16
-9.231035973e-16
-9.284848416e-16
-9.326659089e-16
-9.356488041e-16
-9.374350374e-16
-4.691159237e-16
-1.265531651e-07
-7.356836375e-08
2.008302159e-07
3.135573328e-07
-2.425367083e-08
-2.370657357e-07
-7.506241278e-08
-1.16697207e-06
-4.778606865e-08
-3.503009022e-17
-7.445859596e-17
-1.142275195e-16
-1.524093025e-16
-1.899983027e-16
-2.271683935e-16
-2.638906641e-16
-3.000973569e-16
-3.357188722e-16
-3.706904439e-16
-4.049511648e-16
-4.384435244e-16
-4.711134702e-16
-5.029106092e-16
-5.337878593e-16
-5.637018501e-16
-5.926129497e-16
-6.2048536e-16
-6.472869673e-16
-6.729894208e-16
-6.97567835e-16
-7.210008569e-16
-7.432704291e-16
-7.643616867e-16
-7.842625986e-16
-8.029637744e-16
-8.204582911e-16
-8.367412114e-16
-8.518095536e-16
-8.656619424e-16
-8.782982858e-16
-8.897195724e-16
-8.999276169e-16
-9.089247699e-16
-9.167136858e-16
-9.23297102e-16
-9.286777416e-16
-9.328579659e-16
-9.358397998e-16
-9.376247898e-16
-4.692010342e-16
6.308653782e-08
-2.398912239e-08
1.932630642e-07
2.447138707e-07
1.016912408e-07
2.311632047e-07
1.713072667e-08
7.749616196e-08
-2.2419379e-07
-3.502903522e-17
-7.446620501e-17
-1.142651062e-16
-1.524457001e-16
-1.900396446e-16
-2.272183324e-16
-2.639489683e-16
-3.001639556e-16
-3.357935989e-16
-3.707729516e-16
-4.050410853e-16
-4.385405392e-16
-4.712173497e-16
-5.030209264e-16
-5.339043278e-16
-5.638241166e-16
-5.927407035e-16
-6.206182728e-16
-6.474247551e-16
-6.731316931e-16
-6.977143166e-16
-7.211511363e-16
-7.434242128e-16
-7.645186259e-16
-7.844224088e-16
-8.031262011e-16
-8.206229663e-16
-8.369078641e-16
-8.519779108e-16
-8.658316877e-16
-8.784691381e-16
-8.898912091e-16
-9.000998084e-16
-9.090971876e-16
-9.168860438e-16
-9.234692173e-16
-9.288492873e-16
-9.330287373e-16
-9.360096238e-16
-9.377933821e-16
-4.692741217e-16
2.030088258e-07
3.543345338e-08
1.01320595e-07
8.751019427e-08
9.957692123e-09
4.511415488e-07
5.210553137e-07
1.343407857e-06
-4.303995231e-07
-3.503998155e-17
-7.445778555e-17
-1.142940344e-16
-1.524765836e-16
-1.900742169e-16
-2.272600604e-16
-2.639982005e-16
-3.002204104e-16
-3.358569277e-16
-3.70842868e-16
-4.051172644e-16
-4.386227509e-16
-4.713053721e-16
-5.03114564e-16
-5.340032247e-16
-5.639279998e-16
-5.928493089e-16
-6.207313491e-16
-6.475420294e-16
-6.73252905e-16
-6.97839124e-16
-7.212793145e-16
-7.435554501e-16
-7.646527208e-16
-7.84559044e-16
-8.032650774e-16
-8.207639197e-16
-8.370506046e-16
-8.521221911e-16
-8.65977239e-16
-8.786156991e-16
-8.90038602e-16
-9.002476473e-16
-9.092452704e-16
-9.170341505e-16
-9.236170468e-16
-9.289966696e-16
-9.331754329e-16
-9.361553787e-16
-9.379380497e-16
-4.69333843e-16
2.565152794e-07
1.008544959e-07
8.594291678e-08
-1.186039135e-08
-6.666276129e-08
5.640101136e-07
8.58367447e-07
1.6161021e-06
-5.070326144e-07
-3.506197493e-17
-7.445752462e-17
-1.143119638e-16
-1.524974006e-16
-1.900998476e-16
-2.272926085e-16
-2.640374436e-16
-3.002657993e-16
-3.359079182e-16
-3.708991439e-16
-4.051785951e-16
-4.38688954e-16
-4.713762705e-16
-5.031900048e-16
-5.3408294e-16
-5.640117866e-16
-5.929369626e-16
-6.208226953e-16
-6.476368363e-16
-6.733509596e-16
-6.979402246e-16
-7.213832309e-16
-7.436620039e-16
-7.647616166e-16
-7.846701379e-16
-8.033781896e-16
-8.208787277e-16
-8.371670195e-16
-8.522399462e-16
-8.6609615e-16
-8.787355171e-16
-8.901590492e-16
-9.003685645e-16
-9.093664763e-16
-9.171553373e-16
-9.237380258e-16
-9.29117213e-16
-9.332953416e-16
-9.362744544e-16
-9.380561134e-16
-4.69379007e-16
2.211780777e-07
9.878901446e-08
1.910438765e-07
9.45330266e-08
-1.693671605e-07
4.554731031e-07
9.489287315e-07
1.548198292e-06
-4.449319687e-07
-3.507554772e-17
-7.447003873e-17
-1.143219545e-16
-1.525080576e-16
-1.901153317e-16
-2.273146098e-16
-2.640657019e-16
-3.002991182e-16
-3.359455799e-16
-3.709407617e-16
-4.052239839e-16
-4.387379522e-16
-4.714287728e-16
-5.032458497e-16
-5.341420575e-16
-5.640740073e-16
-5.93002121e-16
-6.20890623e-16
-6.477074307e-16
-6.734240883e-16
-6.980157321e-16
-7.214609705e-16
-7.437418129e-16
-7.648433552e-16
-7.84753637e-16
-8.034632723e-16
-8.209653551e-16
-8.372548908e-16
-8.523289303e-16
-8.661860863e-16
-8.788262175e-16
-8.902503558e-16
-9.004602817e-16
-9.09458333e-16
-9.172472237e-16
-9.23829721e-16
-9.292085471e-16
-9.333860915e-16
-9.363644626e-16
-9.38145183e-16
-4.694085575e-16
1.315772304e-07
-3.261846584e-08
2.611904583e-07
4.118682541e-07
-1.35454203e-07
-1.290081223e-08
8.712434209e-07
1.12081723e-06
-3.319767278e-07
-3.507656619e-17
-7.448485318e-17
-1.143269878e-16
-1.525123126e-16
-1.901221382e-16
-2.273259328e-16
-2.640818985e-16
-3.00319243e-16
-3.359688258e-16
-3.709667207e-16
-4.05252397e-16
-4.387686961e-16
-4.714617569e-16
-5.03280989e-16
-5.341792578e-16
-5.641132193e-16
-5.930432651e-16
-6.209336331e-16
-6.477522226e-16
-6.734705928e-16
-6.980638951e-16
-7.215107393e-16
-7.437930725e-16
-7.648960631e-16
-7.848076907e-16
-8.035185403e-16
-8.210216734e-16
-8.373122379e-16
-8.523871566e-16
-8.662450447e-16
-8.788857824e-16
-8.903103779e-16
-9.005206001e-16
-9.095188395e-16
-9.173077185e-16
-9.238900441e-16
-9.292685003e-16
-9.334455716e-16
-9.364232476e-16
-9.382031274e-16
-4.694215241e-16
5.831365973e-08
-2.25446548e-07
1.680770689e-07
6.831473863e-07
2.156154719e-07
-3.769841607e-07
5.860394498e-07
7.17591681e-07
-2.061078209e-07
-3.507174535e-17
-7.449154763e-17
-1.143270436e-16
-1.525139196e-16
-1.901231497e-16
-2.273277383e-16
-2.640860847e-16
-3.00325488e-16
-3.35976839e-16
-3.709760899e-16
-4.052628867e-16
-4.387801706e-16
-4.714741779e-16
-5.03294287e-16
-5.341934649e-16
-5.641282622e-16
-5.930591625e-16
-6.209503845e-16
-6.477698697e-16
-6.734891141e-16
-6.980833294e-16
-7.215310537e-16
-7.43814316e-16
-7.649181583e-16
-7.848305925e-16
-8.035422476e-16
-8.21046107e-16
-8.373373407e-16
-8.524128361e-16
-8.66271249e-16
-8.789123941e-16
-8.903373163e-16
-9.005477569e-16
-9.095460617e-16
-9.173349278e-16
-9.239170954e-16
-9.292952669e-16
-9.33471879e-16
-9.364489689e-16
-9.382281288e-16
-4.69417183e-16
6.271260623e-08
-3.286340666e-07
-1.477670851e-08
6.430291093e-07
5.565957204e-07
-3.665324895e-07
3.198961097e-07
3.021687101e-07
-1.020561922e-07
-3.506826438e-17
-7.448979945e-17
-1.143212321e-16
-1.525135384e-16
-1.901204358e-16
-2.273216294e-16
-2.640787543e-16
-3.003178042e-16
-3.359691742e-16
-3.709682834e-16
-4.05254686e-16
-4.387715493e-16
-4.714651125e-16
-5.032848163e-16
-5.341836539e-16
-5.641181263e-16
-5.93048774e-16
-6.209398072e-16
-6.477591574e-16
-6.734784314e-16
-6.980727016e-16
-7.215206332e-16
-7.438041097e-16
-7.649082884e-16
-7.848210279e-16
-8.03533014e-16
-8.210372368e-16
-8.373287485e-16
-8.524045725e-16
-8.662632103e-16
-8.789045816e-16
-8.903296869e-16
-9.00540218e-16
-9.095385642e-16
-9.173273337e-16
-9.239093461e-16
-9.292872417e-16
-9.334634922e-16
-9.364401176e-16
-9.382186284e-16
-4.693949158e-16
1.493594078e-07
-2.484877201e-07
-7.533663414e-08
4.31596792e-07
6.387542796e-07
-1.503413099e-07
2.171109397e-07
7.232766834e-08
-4.493018211e-08
-3.50669825e-17
-7.448404039e-17
-1.14309419e-16
-1.525087342e-16
-1.901132945e-16
-2.273083775e-16
-2.6406066e-16
-3.00296505e-16
-3.359456636e-16
-3.709428666e-16
-4.05227325e-16
-4.38742181e-16
-4.714338689e-16
-5.032518342e-16
-5.341490019e-16
-5.640819878e-16
-5.930112224e-16
-6.209010047e-16
-6.477192638e-16
-6.734376026e-16
-6.98031133e-16
-7.214784709e-16
-7.437615337e-16
-7.648653673e-16
-7.847778989e-16
-8.034897479e-16
-8.209938684e-16
-8.372853395e-16
-8.523611438e-16
-8.66219775e-16
-8.788612046e-16
-8.902862813e-16
-9.004967958e-16
-9.094950934e-16
-9.172837688e-16
-9.238656339e-16
-9.292432996e-16
-9.33419209e-16
-9.363954313e-16
-9.381734561e-16
-4.693542846e-16
2.572652106e-07
-5.995577984e-08
2.943731015e-08
2.761882998e-07
5.009121217e-07
3.048928571e-08
2.003415819e-07
4.489789311e-08
-5.9423857e-08
-3.506570784e-17
-7.44772389e-17
-1.142926275e-16
-1.524951276e-16
-1.900982381e-16
-2.272869232e-16
-2.640318753e-16
-3.002618227e-16
-3.359063543e-16
-3.708996127e-16
-4.051804174e-16
-4.386917496e-16
-4.713800415e-16
-5.031948044e-16
-5.34088989e-16
-5.640192154e-16
-5.929459264e-16
-6.208333445e-16
-6.476495225e-16
-6.733659699e-16
-6.979578965e-16
-7.214038555e-16
-7.436858113e-16
-7.647886698e-16
-7.847004456e-16
-8.034116504e-16
-8.209152328e-16
-8.37206314e-16
-8.522817404e-16
-8.661401418e-16
-8.787813339e-16
-8.902062702e-16
-9.004166259e-16
-9.094148075e-16
-9.172033589e-16
-9.237850303e-16
-9.291624939e-16
-9.333381846e-16
-9.363140937e-16
-9.380917508e-16
-4.692950118e-16
3.220981564e-07
9.837579466e-08
1.782593693e-07
2.432882938e-07
3.039850264e-07
1.101912267e-07
1.507821584e-07
2.504827891e-07
-1.323140914e-07
-3.506119135e-17
-7.446859805e-17
-1.142743941e-16
-1.524701522e-16
-1.900711191e-16
-2.272544811e-16
-2.639913723e-16
-3.002136268e-16
-3.358512804e-16
-3.708384218e-16
-4.051137119e-16
-4.386199161e-16
-4.713032977e-16
-5.031134231e-16
-5.340032795e-16
-5.6392948e-16
-5.928524502e-16
-6.207364728e-16
-6.475494866e-16
-6.732631286e-16
-6.978525727e-16
-7.212963928e-16
-7.435764336e-16
-7.646777511e-16
-7.845881591e-16
-8.032982239e-16
-8.208008295e-16
-8.37091092e-16
-8.521658891e-16
-8.660237381e-16
-8.786645073e-16
-8.900891082e-16
-9.002992241e-16
-9.09297169e-16
-9.170855292e-16
-9.23667054e-16
-9.290443619e-16
-9.332198814e-16
-9.361955567e-16
-9.379729843e-16
-4.692170637e-16
3.211330205e-07
1.437091495e-07
2.27321146e-07
2.303989013e-07
1.695222799e-07
1.471022042e-07
9.236206811e-08
7.25098437e-07
-2.309541209e-07
-3.505191312e-17
-7.445332569e-17
-1.142589874e-16
-1.524358246e-16
-1.900304303e-16
-2.272089273e-16
-2.639376946e-16
-3.001511356e-16
-3.357802072e-16
-3.707593443e-16
-4.050272182e-16
-4.385265804e-16
-4.712035613e-16
-5.030076137e-16
-5.338917825e-16
-5.638126549e-16
-5.927306807e-16
-6.206101669e-16
-6.474190379e-16
-6.73128913e-16
-6.977149846e-16
-7.211558501e-16
-7.434333123e-16
-7.645323903e-16
-7.844408855e-16
-8.031492887e-16
-8.206505085e-16
-8.369395744e-16
-8.520133619e-16
-8.658704218e-16
-8.785105598e-16
-8.899346245e-16
-9.001443696e-16
-9.091420253e-16
-9.169301994e-16
-9.235115373e-16
-9.28888709e-16
-9.330641046e-16
-9.360396934e-16
-9.378170256e-16
-4.691204975e-16
2.716267204e-07
9.523155765e-08
1.535072015e-07
1.532691688e-07
1.445213432e-07
2.085620109e-07
1.415235258e-07
1.238591941e-06
-3.693873517e-07
-3.504226725e-17
-7.443046255e-17
-1.142464217e-16
-1.523972123e-16
-1.899791092e-16
-2.271503548e-16
-2.638704049e-16
-3.000738771e-16
-3.356928732e-16
-3.706621965e-16
-4.049210413e-16
-4.384119196e-16
-4.710808909e-16
-5.028774312e-16
-5.337544822e-16
-5.636688172e-16
-5.92580784e-16
-6.204545768e-16
-6.472582826e-16
-6.729634556e-16
-6.975452902e-16
-7.209824125e-16
-7.432565835e-16
-7.643527629e-16
-7.84258741e-16
-8.029649844e-16
-8.20464354e-16
-8.367518509e-16
-8.518243543e-16
-8.656803359e-16
-8.783195891e-16
-8.897430194e-16
-8.999522391e-16
-9.089495602e-16
-9.167374376e-16
-9.233186479e-16
-9.28695735e-16
-9.328710618e-16
-9.358466643e-16
-9.376239964e-16
-4.690055791e-16
1.9680419e-07
1.588306258e-08
3.730785613e-08
5.310791344e-08
2.036483053e-07
2.765598877e-07
4.119057415e-07
1.733944823e-06
-4.868130383e-07
-3.503764611e-17
-7.440314351e-17
-1.142266285e-16
-1.523532735e-16
-1.899192994e-16
-2.270799174e-16
-2.637896555e-16
-2.999817211e-16
-3.355889845e-16
-3.705470936e-16
-4.047952798e-16
-4.382760998e-16
-4.709355702e-16
-5.027231296e-16
-5.335918364e-16
-5.634983032e-16
-5.92403006e-16
-6.202700976e-16
-6.470675867e-16
-6.727671185e-16
-6.973438896e-16
-7.207764239e-16
-7.430466137e-16
-7.641392408e-16
-7.840421689e-16
-8.027457505e-16
-8.202428148e-16
-8.365284024e-16
-8.515992651e-16
-8.654539449e-16
-8.78092141e-16
-8.895147262e-16
-8.997233479e-16
-9.087202275e-16
-9.165078395e-16
-9.230888799e-16
-9.284659117e-16
-9.326412856e-16
-9.35616963e-16
-9.373944579e-16
-4.688727199e-16
1.104598149e-07
-4.579531514e-08
-2.942072346e-08
3.82244297e-08
2.716917919e-07
3.150446035e-07
1.059773139e-06
1.657621052e-06
-5.22185093e-07
-3.503774625e-17
-7.43815578e-17
-1.141944558e-16
-1.523024515e-16
-1.898522808e-16
-2.269991358e-16
-2.636960745e-16
-2.998749195e-16
-3.354688292e-16
-3.70414117e-16
-4.04650147e-16
-4.381194581e-16
-4.70767992e-16
-5.025452264e-16
-5.334042034e-16
-5.633016388e-16
-5.921979105e-16
-6.2005725e-16
-6.468475606e-16
-6.725405396e-16
-6.971113763e-16
-7.205386207e-16
-7.42804053e-16
-7.638925548e-16
-7.837918579e-16
-8.024922914e-16
-8.199866819e-16
-8.362699387e-16
-8.513389273e-16
-8.651920073e-16
-8.77828967e-16
-8.892506031e-16
-8.994585258e-16
-9.084548764e-16
-9.162421923e-16
-9.228230825e-16
-9.282001173e-16
-9.323755616e-16
-9.353514464e-16
-9.371291958e-16
-4.687224637e-16
2.185594996e-08
-7.247811673e-08
-6.028205089e-09
1.638972679e-07
2.718214755e-07
8.529521139e-08
1.534604038e-06
9.777877763e-07
-3.882831609e-07
-3.503218408e-17
-7.436172996e-17
-1.141445867e-16
-1.522422706e-16
-1.897782934e-16
-2.269092261e-16
-2.635906073e-16
-2.997540381e-16
-3.353328758e-16
-3.70263778e-16
-4.044861618e-16
-4.379424851e-16
-4.705786816e-16
-5.023442786e-16
-5.331923189e-16
-5.630795315e-16
-5.919663099e-16
-6.198167844e-16
-6.465989987e-16
-6.722845731e-16
-6.968486632e-16
-7.202698648e-16
-7.425299098e-16
-7.636136741e-16
-7.835087816e-16
-8.022056238e-16
-8.196969056e-16
-8.359775537e-16
-8.510443334e-16
-8.648956418e-16
-8.775311657e-16
-8.88951717e-16
-8.991588088e-16
-9.081546335e-16
-9.159416246e-16
-9.225223545e-16
-9.278994033e-16
-9.320750491e-16
-9.350512067e-16
-9.368293494e-16
-4.685555688e-16
-5.817487721e-08
-7.494171334e-08
6.781817177e-08
3.505905075e-07
2.678483891e-07
-4.539025398e-07
1.232448011e-06
-5.30802902e-07
-1.443374064e-07
-3.501829607e-17
-7.434320486e-17
-1.140792591e-16
-1.521699205e-16
-1.896949823e-16
-2.268097614e-16
-2.634735034e-16
-2.996195326e-16
-3.351816937e-16
-3.700966641e-16
-4.04303878e-16
-4.377458308e-16
-4.703683754e-16
-5.021210646e-16
-5.329569811e-16
-5.628328525e-16
-5.917090614e-16
-6.195497754e-16
-6.463229613e-16
-6.7200024e-16
-6.965568391e-16
-7.199712694e-16
-7.422253055e-16
-7.633037075e-16
-7.831941968e-16
-8.018869436e-16
-8.1937478e-16
-8.35652494e-16
-8.507168242e-16
-8.645661515e-16
-8.772000747e-16
-8.886194024e-16
-8.988256198e-16
-9.078208561e-16
-9.156074876e-16
-9.221881672e-16
-9.275652528e-16
-9.317411555e-16
-9.347176731e-16
-9.364963034e-16
-4.68372828e-16
-1.139442213e-07
-6.890340975e-08
1.1787704e-07
4.690611071e-07
2.282048621e-07
-8.059660033e-07
4.985410199e-07
-1.379757114e-06
3.950538126e-08
-3.499275965e-17
-7.432481262e-17
-1.140162403e-16
-1.520922892e-16
-1.896033079e-16
-2.267004176e-16
-2.633448584e-16
-2.994718515e-16
-3.350157988e-16
-3.699134506e-16
-4.041041368e-16
-4.37530312e-16
-4.701379161e-16
-5.018765264e-16
-5.32699201e-16
-5.625626742e-16
-5.914273264e-16
-6.192573074e-16
-6.460205803e-16
-6.716888507e-16
-6.962371682e-16
-7.196441943e-16
-7.418915921e-16
-7.629641458e-16
-7.828494679e-16
-8.015377989e-16
-8.190218088e-16
-8.352962794e-16
-8.503579673e-16
-8.642050749e-16
-8.768373206e-16
-8.882553243e-16
-8.984605928e-16
-9.074551938e-16
-9.152415142e-16
-9.218220535e-16
-9.271992881e-16
-9.313754295e-16
-9.34352462e-16
-9.361316923e-16
-4.681751298e-16
-1.344842188e-07
-7.666807374e-08
5.844420492e-08
3.701224246e-07
2.585435723e-08
-8.21030249e-07
-1.787290988e-07
-1.031380073e-06
2.965532575e-07
-3.495823654e-17
-7.42801753e-17
-1.139548701e-16
-1.520130353e-16
-1.895049251e-16
-2.265815786e-16
-2.632049998e-16
-2.993115043e-16
-3.348358755e-16
-3.69714832e-16
-4.038876768e-16
-4.372968365e-16
-4.698883103e-16
-5.016116989e-16
-5.32420101e-16
-5.622701862e-16
-5.911223066e-16
-6.189406835e-16
-6.456932804e-16
-6.713516796e-16
-6.958911297e-16
-7.192900797e-16
-7.415303354e-16
-7.625965303e-16
-7.824762719e-16
-8.011597791e-16
-8.186396668e-16
-8.34910669e-16
-8.499694644e-16
-8.638142511e-16
-8.764446491e-16
-8.878612473e-16
-8.980655409e-16
-9.070594881e-16
-9.148454726e-16
-9.21425939e-16
-9.268033776e-16
-9.309798974e-16