/*--------------------------------*- C++ -*----------------------------------*\
  =========                 |
  \\      /  F ield         | OpenFOAM: The Open Source CFD Toolbox
   \\    /   O peration     | Website:  https://openfoam.org
    \\  /    A nd           | Version:  6
     \\/     M anipulation  |
\*---------------------------------------------------------------------------*/
FoamFile
{
    version     2.0;
    format      ascii;
    class       volScalarField;
    location    "0.08";
    object      p_rgh;
}
// * * * * * * * * * * * * * * * * * * * * * * * * * * * * * * * * * * * * * //

dimensions      [1 -1 -2 0 0 0 0];

internalField   nonuniform List<scalar> 
2500
(
0.4067188349
0.2198641788
0.1349790959
0.09737437604
0.11255901
0.1382524592
0.1430227148
0.1534284146
27276.26915
27346.32123
27415.60731
27483.72165
27550.12818
27614.34997
27675.98012
27734.68903
27790.22715
27842.42365
27891.18174
27936.47147
27978.32095
28016.80681
28052.04453
28084.17925
28113.37729
28139.81872
28163.69104
28185.18391
28204.48495
28221.77655
28237.2334
28251.02086
28263.29381
28274.19609
28283.86019
28292.40733
28299.94769
28306.58081
28312.39606
28317.47321
28321.88301
28325.68771
28328.94165
28331.69176
28333.97802
28335.83391
28337.28676
28338.35804
28339.06363
28339.41394
0.216605725
0.1438682288
0.08000054784
0.05820830749
0.08206280316
0.1173353731
0.1285637152
0.1314922923
27276.2456
27346.91358
27416.77941
27485.42922
27552.31268
27616.94136
27678.90114
27737.85964
27793.56864
27845.86201
27894.65013
27939.91182
27981.68476
28020.0552
28055.14787
28087.11633
28116.13435
28142.38835
28166.07106
28187.37633
28206.49505
28223.61197
28238.9035
28252.53608
28264.66524
28275.43503
28284.97793
28293.41491
28300.85575
28307.3995
28313.13499
28318.14142
28322.48897
28326.23934
28329.44636
28332.15648
28334.40928
28336.23785
28337.66923
28338.72464
28339.41981
28339.76515
0.09146435611
0.09262504261
0.06752698811
0.06527879817
0.0855055104
0.1107638708
0.1208589511
0.1190721199
27276.23526
27348.12985
27419.16793
27488.90305
27556.75185
27622.20157
27684.8234
27744.27979
27800.3259
27852.80584
27901.64527
27946.84137
27988.4516
28026.58202
28061.37617
28093.0047
28121.65635
28147.53025
28170.82957
28191.75644
28210.5081
28227.27401
28242.23382
28255.55605
28267.39736
28277.90225
28287.20301
28295.42007
28302.66237
28309.02793
28314.60447
28319.47004
28323.69364
28327.33587
28330.44953
28333.08011
28335.26633
28337.04057
28338.42924
28339.45307
28340.12742
28340.46242
0.01371509533
0.05407404038
0.05050265648
0.07172446351
0.09425733958
0.1160142568
0.1245169083
0.1210529895
27276.239
27350.01632
27422.85973
27494.263
27563.5899
27630.28951
27693.91095
27754.11017
27810.64935
27863.39033
27912.28398
27957.35715
27998.69868
28036.44568
28070.77073
28101.87066
28129.9569
28155.24761
28177.96145
28198.31274
28216.50794
28232.74323
28247.20281
28260.05806
28271.4671
28281.57478
28290.51302
28298.40123
28305.34698
28311.44667
28316.78624
28321.44194
28325.481
28328.96233
28331.93713
28334.44945
28336.53674
28338.23026
28339.55547
28340.53239
28341.17577
28341.49538
-0.03806318338
0.03749569439
0.04343699083
0.07985179122
0.1102309107
0.1289573991
0.1361655516
0.1322590917
27276.25834
27352.64637
27427.99193
27501.69905
27573.05495
27641.45536
27706.42051
27767.60048
27824.77098
27877.82223
27926.74339
27971.60491
28012.54076
28049.73183
28083.39107
28113.75105
28141.05377
28165.54272
28187.45681
28207.02609
28224.46874
28239.98921
28253.77725
28266.00743
28276.83935
28286.41796
28294.87426
28302.32609
28308.87892
28314.62679
28319.65317
28324.03179
28327.82742
28331.09666
28333.88854
28336.24517
28338.20227
28339.7896
28341.03138
28341.9466
28342.54927
28342.84865
-0.07692799448
0.02793380319
0.04495839889
0.09790151582
0.1364474482
0.1473831838
0.1537306255
0.1476127338
27276.2852
27356.12277
27434.76274
27511.48594
27585.4751
27656.0561
27722.71497
27785.10005
27843.01178
27896.38432
27945.26267
27989.77866
28030.12811
28066.55039
28099.31133
28128.68944
28154.96526
28178.41358
28199.29795
28217.86707
28234.35273
28248.96872
28261.91063
28273.35621
28283.46607
28292.38462
28300.24121
28307.15118
28313.21707
28318.52968
28323.16916
28327.20591
28330.70155
28333.70966
28336.27653
28338.44178
28340.23893
28341.69586
28342.83521
28343.67471
28344.22744
28344.502
-0.1017398592
0.008428564121
0.04225895083
0.1164646847
0.164859773
0.177227719
0.1758384085
0.1700068043
27276.31669
27360.5908
27443.45035
27524.00631
27601.30283
27674.57841
27743.28279
27807.07267
27865.79166
27919.44065
27968.1445
28012.11933
28051.64311
28087.03089
28118.61515
28146.73092
28171.70512
28193.84932
28213.45529
28230.79254
28246.10746
28259.6234
28271.54147
28282.04186
28291.28526
28299.41446
28306.55598
28312.82158
28318.30974
28323.10698
28327.28915
28330.92246
28334.06453
28336.76523
28339.06747
28341.00783
28342.61716
28343.92106
28344.94026
28345.69097
28346.18514
28346.43061
-0.1061637308
-0.02849516918
0.01676349821
0.118332695
0.1923085595
0.2136093712
0.1945905623
0.197919835
27276.34954
27366.25516
27454.44138
27539.78531
27621.15065
27697.67119
27768.76449
27834.11578
27893.64135
27947.44213
27995.75557
28038.91146
28077.29466
28111.31557
28141.38821
28167.91482
28191.27588
28211.82426
28229.88234
28245.74139
28259.66226
28271.87703
28282.59113
28291.98566
28300.21982
28307.43318
28313.7479
28319.27067
28324.09457
28328.30064
28331.95928
28335.13154
28337.87018
28340.22059
28342.22162
28343.90625
28345.30218
28346.43231
28347.31516
28347.96515
28348.39289
28348.60538
-0.08886562734
-0.06251406281
-0.02394555023
0.09200519679
0.1987294577
0.2324606638
0.209377089
0.2238797316
27276.38497
27373.4074
27468.27435
27559.54173
27645.84208
27726.19012
27799.98739
27866.98406
27927.21558
27980.93099
28028.52444
28070.47673
28107.30911
28139.54926
28167.70812
28192.26516
28213.6603
28232.2905
28248.50948
28262.62949
28274.92425
28285.63247
28294.96149
28303.091
28310.17636
28316.35175
28321.73297
28326.41987
28330.4985
28334.04298
28337.11707
28339.77555
28342.06538
28344.02666
28345.69351
28347.09472
28348.25435
28349.19221
28349.92427
28350.46292
28350.81728
28350.99332
-0.05638396335
-0.06263274555
-0.04598676306
0.04981577014
0.1647791828
0.2171395125
0.2297626916
0.2316849745
27276.43343
27382.4716
27485.70617
27584.26342
27676.4841
27761.25836
27838.00979
27906.61679
27967.30565
28020.54184
28066.93479
28107.16248
28141.91648
28171.86509
28197.63078
28219.77838
28238.81068
28255.16901
28269.23666
28281.34394
28291.77392
28300.76823
28308.53254
28315.24167
28321.04405
28326.0657
28330.41359
28334.17858
28337.43784
28340.25699
28342.69176
28344.78951
28346.59042
28348.12848
28349.43237
28350.5261
28351.42962
28352.15927
28352.72813
28353.14635
28353.42135
28353.55799
-0.0333120661
-0.03784782712
-0.03166944302
0.02478683551
0.1112399816
0.1764361486
0.2301129161
0.1667096296
27276.47756
27394.07797
27507.8137
27615.31911
27714.57009
27804.34742
27884.17521
27954.16684
28014.84808
28066.99608
28111.51089
28149.3226
28181.3301
28208.3648
28231.17257
28250.40796
28266.63614
28280.33933
28291.92534
28301.73683
28310.06042
28317.13514
28323.15993
28328.30026
28332.69368
28336.45462
28339.67834
28342.44424
28344.81855
28346.85663
28348.60474
28350.10161
28351.37961
28352.4658
28353.38271
28354.14902
28354.78011
28355.28846
28355.68399
28355.97437
28356.16515
28356.25998
-0.02446162898
-0.01236399055
0.002147930928
0.03293247987
0.08183014889
0.1251880319
0.1545035916
0.008551489691
27277.28577
27409.23522
27536.14855
27654.62539
27762.12625
27857.38335
27940.17506
28011.02641
28070.92357
28121.08383
28162.79076
28197.28786
28225.71758
28249.09258
28268.28792
28284.04592
28296.98777
28307.62802
28316.38971
28323.61877
28329.59695
28334.55313
28338.67298
28342.10694
28344.97698
28347.38196
28349.40214
28351.10271
28352.53675
28353.7475
28354.77025
28355.63387
28356.36192
28356.9737
28357.48496
28357.9085
28358.25469
28358.53181
28358.74637
28358.90332
28359.00626
28359.05749
-0.02094838614
-0.001082018855
0.02693029838
0.04889591645
0.08223725712
0.0789316727
0.006420540043
-0.1698636305
27277.79525
27428.99101
27572.91309
27704.90145
27821.92117
27922.8812
28008.11328
28078.83939
28136.73608
28183.62559
28221.2815
28251.32172
28275.16111
28294.00136
28308.84192
28320.50134
28329.64227
28336.79649
28342.38793
28346.7528
28350.15666
28352.80866
28354.87307
28356.47874
28357.72652
28358.69531
28359.44675
28360.02895
28360.47948
28360.82761
28361.09618
28361.30296
28361.4618
28361.58344
28361.67625
28361.74667
28361.79968
28361.83906
28361.86769
28361.88765
28361.90042
28361.90691
-0.02247895144
-0.003573565883
0.02418491393
0.0420254187
0.06985519679
0.03090922627
-0.1423913075
-0.1959144096
27277.0976
27455.36234
27621.59975
27770.1366
27897.76889
28004.10284
28090.55552
28159.48143
28213.55643
28255.40221
28287.38949
28311.55806
28329.60542
28342.9114
28352.57858
28359.47668
28364.28481
28367.52903
28369.61398
28370.84905
28371.46944
28371.65293
28371.53309
28371.20959
28370.75625
28370.22722
28369.6618
28369.08809
28368.52583
28367.98854
28367.48516
28367.02128
28366.60016
28366.22333
28365.89124
28365.60357
28365.35961
28365.15842
28364.99903
28364.88053
28364.8022
28364.7635
-0.02982988826
-0.01640084221
0.001248717705
0.01469197396
0.01634049323
-0.04595923875
-0.2195423082
0.1237996699
27278.30293
27492.78189
27687.97141
27856.26245
27994.90611
28105.20134
28190.52324
28254.97501
28302.6077
28337.03945
28361.31842
28377.91779
28388.79311
28395.46208
28399.08601
28400.5435
28400.4927
28399.42217
28397.69116
28395.56119
28393.2203
28390.80172
28388.39794
28386.07146
28383.86283
28381.7967
28379.88633
28378.13699
28376.54845
28375.11681
28373.83587
28372.69814
28371.6955
28370.81979
28370.0631
28369.41809
28368.87811
28368.43732
28368.09081
28367.8346
28367.66569
28367.58207
-0.04212693461
-0.03438992328
-0.02739364173
-0.02477101379
-0.04503216018
-0.1404925769
-0.2029767724
0.7778189279
27281.30283
27548.10788
27781.21655
27972.01564
28120.38157
28231.2698
28311.36166
28367.29023
28404.86318
28428.83283
28442.93007
28450.00435
28452.18957
28451.05987
28447.76172
28443.12023
28437.72179
28431.97711
28426.16857
28420.48544
28415.05004
28409.93686
28405.18664
28400.81663
28396.82808
28393.21158
28389.95101
28387.0263
28384.41539
28382.09561
28380.04464
28378.24115
28376.6652
28375.2985
28374.1246
28373.12891
28372.29873
28371.62327
28371.09362
28370.7027
28370.44523
28370.3177
-0.05801248799
-0.05547755812
-0.05572782111
-0.06688384829
-0.08223679833
-0.1917992441
-0.1218516022
1.491669351
27290.00062
27635.30587
27916.73268
28130.17675
28283.32628
28388.1351
28456.36781
28497.9667
28520.7275
28530.50351
28531.5688
28526.98333
28518.90373
28508.82839
28497.78269
28486.45555
28475.29857
28464.59725
28454.52178
28445.16314
28436.5587
28428.71016
28421.59624
28415.18148
28409.4224
28404.27167
28399.681
28395.603
28391.9924
28388.80682
28386.00717
28383.55788
28381.4269
28379.58572
28378.0092
28376.67551
28375.56594
28374.66474
28373.95905
28373.43869
28373.09616
28372.92647
-0.07625361563
-0.07732929327
-0.08104435714
-0.09713889292
-0.1069030648
-0.172384645
-0.07452516767
1.840478529
27322.44848
27784.11791
28120.18087
28348.61114
28494.6128
28581.58587
28628.01883
28647.49134
28649.58494
28640.89145
28625.86335
28607.46032
28587.61663
28567.56964
28548.087
28529.6223
28512.42109
28496.5928
28482.15931
28469.08776
28457.31254
28446.74992
28437.30775
28428.89174
28421.40947
28414.77284
28408.89947
28403.71345
28399.14557
28395.1333
28391.62058
28388.55754
28385.90008
28383.60954
28381.65226
28379.99931
28378.62609
28377.51204
28376.64046
28375.99821
28375.57559
28375.3662
-0.09596590578
-0.09870990081
-0.1044697288
-0.1180316918
-0.128645419
-0.1485945746
-0.1842475613
1.546532817
27450.33808
28055.84466
28431.23517
28649.48315
28764.95258
28815.60153
28826.65061
28814.41023
28789.24058
28757.62196
28723.53849
28689.38204
28656.53582
28625.7488
28597.37513
28571.527
28548.17195
28527.19467
28508.43595
28491.71707
28476.85479
28463.67025
28451.99413
28441.66931
28432.55197
28424.51183
28417.43172
28411.20692
28405.74431
28400.96142
28396.78554
28393.15286
28390.00761
28387.30135
28384.99229
28383.04469
28381.42836
28380.1182
28379.09387
28378.33942
28377.84311
28377.59722
-0.1162970145
-0.1196835344
-0.1278266168
-0.1393694653
-0.1640794911
-0.1572869378
-0.2922794524
0.702219601
27869.81281
28554.67726
28899.53157
29053.21578
29100.1767
29089.2619
29048.60193
28994.27816
28935.35811
28876.82578
28821.29218
28769.99727
28723.39842
28681.51648
28644.13916
28610.9398
28581.54608
28555.57893
28532.67366
28512.49071
28494.72021
28479.08309
28465.33019
28453.24039
28442.61832
28433.29186
28425.10976
28417.93934
28411.66448
28406.1837
28401.40851
28397.26197
28393.6774
28390.59724
28387.97214
28385.7601
28383.92576
28382.43986
28381.27871
28380.42382
28379.86156
28379.58299
-0.1360698909
-0.1400630854
-0.1502684687
-0.1622687223
-0.1929422994
-0.1838150904
-0.3344737189
-0.145380128
28876.52014
29390.67709
29559.31986
29563.8501
29493.38046
29392.72803
29284.2525
29178.76319
29081.10024
28993.03822
28914.81165
28845.91923
28785.54589
28732.78081
28686.7262
28646.54776
28611.49439
28580.90204
28554.1898
28530.85267
28510.45308
28492.61258
28477.00405
28463.34471
28451.39006
28440.92858
28431.77717
28423.77731
28416.79172
28410.70155
28405.40402
28400.81034
28396.84401
28393.43933
28390.54021
28388.09908
28386.07603
28384.43808
28383.15863
28382.2169
28381.59764
28381.29084
-0.1539320474
-0.1588945997
-0.1701545922
-0.1854521197
-0.2129327931
-0.2374835111
-0.3360862083
-0.7375546944
30597.23313
30570.48038
30383.6766
30149.7065
29916.87978
29704.07539
29516.94709
29355.4376
29217.2496
29099.41937
28998.99906
28913.32316
28840.08567
28777.33503
28723.43737
28677.03099
28636.98208
28602.3455
28572.3314
28546.27772
28523.62757
28503.9109
28486.72956
28471.74523
28458.66959
28447.25622
28437.29409
28428.6021
28421.02465
28414.42793
28408.69687
28403.73258
28399.45019
28395.77712
28392.65157
28390.02127
28387.84248
28386.07913
28384.70213
28383.68883
28383.02261
28382.69254
-0.1686421302
-0.1748190901
-0.1865075907
-0.2070580538
-0.2286851562
-0.2987048155
-0.2984894666
-1.095776499
32734.98984
31910.95633
31255.5152
30734.56731
30320.42334
29989.7756
29724.03444
29508.79426
29333.04153
29188.3897
29068.4408
28968.2875
28884.13764
28813.03559
28752.65685
28701.15656
28657.0575
28619.16668
28586.51295
28558.29974
28533.86921
28512.67458
28494.25884
28478.23795
28464.28777
28452.13362
28441.5419
28432.31343
28424.27796
28417.2898
28411.22414
28405.97411
28401.44828
28397.56864
28394.26894
28391.49324
28389.19479
28387.33513
28385.88324
28384.81501
28384.11274
28383.76482
-0.1790745308
-0.186299021
-0.1977769359
-0.2224197161
-0.2339609724
-0.3336642021
-0.1943782717
-1.225274228
34677.26174
33086.6686
31992.82276
31212.60248
30640.44735
30210.54861
29880.60419
29622.65073
29417.72306
29252.65013
29118.08189
29007.24481
28915.13927
28838.01113
28772.99676
28717.88026
28670.92436
28630.75077
28596.25417
28566.53946
28540.87545
28518.66004
28499.394
28482.66076
28468.11082
28455.44954
28444.42748
28434.8328
28426.48506
28419.2303
28412.93696
28407.49264
28402.80139
28398.78148
28395.36357
28392.48922
28390.10962
28388.18466
28386.682
28385.57654
28384.84984
28384.48983
-0.1844469483
-0.1922208469
-0.203196367
-0.2293408557
-0.2315022728
-0.3380752249
-0.07307378169
-1.17043704
35823.64279
33772.55084
32416.11396
31482.37351
30818.09749
30331.29582
29965.13827
29683.4528
29462.53115
29286.39345
29143.9835
29027.46493
28931.15969
28850.87033
28783.43713
28726.44233
28678.00836
28636.65767
28601.21356
28570.72879
28544.43353
28521.69671
28501.99706
28484.90108
28470.0461
28457.12716
28445.88668
28436.10628
28427.6003
28420.2105
28413.80191
28408.2593
28403.48439
28399.39357
28395.91591
28392.99171
28390.57112
28388.61317
28387.08488
28385.96062
28385.22159
28384.85547
-0.1844469359
-0.1922208174
-0.203196319
-0.2293407885
-0.231502201
-0.3380751641
-0.07307384827
-1.17043731
35823.64268
33772.5508
32416.11392
31482.37347
30818.09744
30331.29576
29965.13821
29683.45274
29462.53109
29286.3934
29143.98346
29027.4649
28931.15967
28850.87032
28783.43714
28726.44235
28678.00839
28636.65771
28601.2136
28570.72885
28544.4336
28521.69679
28501.99715
28484.90117
28470.0462
28457.12727
28445.8868
28436.1064
28427.60042
28420.21063
28413.80204
28408.25944
28403.48454
28399.39371
28395.91606
28392.99186
28390.57128
28388.61333
28387.08504
28385.96078
28385.22175
28384.85563
-0.1790744958
-0.1862989347
-0.1977767904
-0.2224195017
-0.2339607161
-0.333663926
-0.1943784401
-1.225274989
34677.26135
33086.66847
31992.82265
31212.60235
30640.44719
30210.54843
29880.604
29622.65054
29417.72288
29252.64998
29118.08177
29007.24472
28915.13922
28838.01111
28772.99677
28717.88031
28670.92444
28630.75088
28596.25431
28566.53964
28540.87565
28518.66027
28499.39425
28482.66104
28468.11112
28455.44986
28444.42782
28434.83316
28426.48544
28419.23069
28412.93736
28407.49306
28402.80183
28398.78193
28395.36403
28392.48968
28390.11009
28388.18513
28386.68248
28385.57702
28384.85033
28384.49032
-0.1686420799
-0.1748189573
-0.1865073535
-0.2070576766
-0.2286846103
-0.2987040557
-0.2984891833
-1.095777292
32734.98924
31910.95617
31255.51505
30734.5671
30320.42307
29989.77529
29724.03411
29508.79394
29333.04124
29188.38945
29068.44059
28968.28735
28884.13755
28813.03556
28752.65687
28701.15664
28657.05763
28619.16687
28586.51319
28558.30003
28533.86954
28512.67497
28494.25926
28478.23841
28464.28827
28452.13415
28441.54247
28432.31402
28424.27859
28417.29045
28411.22482
28405.97481
28401.449
28397.56938
28394.2697
28391.49401
28389.19558
28387.33592
28385.88404
28384.81581
28384.11355
28383.76563
-0.1539319936
-0.1588944443
-0.1701542993
-0.1854516221
-0.212931923
-0.2374821098
-0.3360835526
-0.7375493013
30597.23266
30570.48037
30383.67646
30149.70621
29916.87937
29704.07492
29516.9466
29355.43713
29217.24916
29099.419
28998.99876
28913.32294
28840.08553
28777.33498
28723.4374
28677.0311
28636.98228
28602.34576
28572.33174
28546.27813
28523.62805
28503.91143
28486.73015
28471.74588
28458.67029
28447.25698
28437.29489
28428.60294
28421.02553
28414.42885
28408.69783
28403.73356
28399.4512
28395.77816
28392.65263
28390.02235
28387.84358
28386.08024
28384.70325
28383.68996
28383.02374
28382.69368
-0.1360698459
-0.1400629418
-0.150268194
-0.1622682442
-0.192941371
-0.183813397
-0.3344689944
-0.1453595339
28876.52245
29390.67771
29559.31979
29563.84968
29493.37986
29392.72735
29284.25181
29178.76253
29081.09965
28993.03772
28914.81125
28845.91894
28785.54571
28732.78074
28686.72624
28646.54791
28611.49464
28580.90238
28554.19024
28530.8532
28510.45369
28492.61328
28477.00481
28463.34555
28451.39097
28440.92955
28431.7782
28423.77839
28416.79285
28410.70274
28405.40525
28400.81161
28396.84531
28393.44067
28390.54158
28388.10047
28386.07744
28384.43952
28383.16007
28382.21836
28381.59911
28381.29231
-0.1162969849
-0.1196834302
-0.1278264332
-0.1393691891
-0.1640790696
-0.1572862695
-0.2922777219
0.7022170803
27869.81384
28554.67751
28899.53123
29053.21508
29100.17581
29089.26094
29048.60099
28994.27729
28935.35735
28876.82514
28821.29168
28769.99691
28723.3982
28681.5164
28644.13922
28610.93999
28581.5464
28555.57936
28532.67421
28512.49136
28494.72097
28479.08394
28465.33113
28453.24142
28442.61944
28433.29305
28425.11102
28417.94067
28411.66587
28406.18515
28401.41001
28397.26353
28393.679
28390.59888
28387.97382
28385.7618
28383.92749
28382.44162
28381.28049
28380.4256
28379.86335
28379.58479
-0.09596588859
-0.09870983653
-0.1044696375
-0.1180316315
-0.1286455536
-0.148595265
-0.1842495515
1.546530371
27450.33889
28055.8444
28431.23433
28649.48199
28764.95128
28815.60022
28826.64936
28814.40911
28789.23962
28757.62117
28723.53788
28689.3816
28656.53556
28625.74871
28597.3752
28571.52723
28548.17233
28527.19519
28508.4366
28491.71786
28476.85569
28463.67126
28451.99526
28441.67054
28432.5533
28424.51325
28417.43322
28411.2085
28405.74596
28400.96314
28396.78733
28393.1547
28390.00951
28387.3033
28384.99428
28383.04672
28381.43042
28380.12029
28379.09597
28378.34154
28377.84524
28377.59935
-0.076253603
-0.077329246
-0.08104429693
-0.09713888489
-0.1069032458
-0.1723853881
-0.07452621344
1.840471106
27322.44753
27784.11668
28120.17928
28348.60934
28494.61096
28581.58411
28628.01723
28647.48994
28649.58376
28640.8905
28625.86263
28607.45982
28587.61634
28567.56955
28548.08709
28529.62258
28512.42155
28496.59341
28482.16008
28469.08868
28457.31359
28446.75111
28437.30906
28428.89317
28421.41101
28414.77448
28408.90121
28403.71529
28399.14749
28395.1353
28391.62266
28388.55968
28385.90228
28383.61179
28381.65457
28380.00166
28378.62847
28377.51446
28376.6429
28376.00066
28375.57805
28375.36868
-0.05801247528
-0.05547750571
-0.0557277382
-0.06688375387
-0.08223674364
-0.1917994039
-0.1218513731
1.491657184
27289.9987
27635.30375
27916.73021
28130.17415
28283.32378
28388.13282
28456.36581
28497.965
28520.7261
28530.5024
28531.56797
28526.98276
28518.90341
28508.8283
28497.78282
28486.45588
28475.29911
28464.59797
28454.52267
28445.1642
28436.55991
28428.71152
28421.59774
28415.18312
28409.42416
28404.27355
28399.68299
28395.60509
28391.99458
28388.80909
28386.00953
28383.56032
28381.42941
28379.58828
28378.01183
28376.67819
28375.56865
28374.66749
28373.96183
28373.44149
28373.09897
28372.92928
-0.04212692482
-0.03438986063
-0.02739351602
-0.02477078792
-0.04503189886
-0.1404925625
-0.2029767305
0.7778115717
27281.30164
27548.105
27781.21296
27972.01203
28120.37827
28231.26692
28311.35923
28367.28822
28404.86157
28428.83158
28442.92915
28450.00373
28452.18924
28451.05979
28447.76189
28443.12063
28437.72241
28431.97794
28426.16959
28420.48665
28415.05142
28409.9384
28405.18834
28400.81848
28396.83006
28393.21369
28389.95325
28387.02866
28384.41785
28382.09817
28380.0473
28378.24389
28376.66801
28375.30139
28374.12755
28373.13191
28372.30178
28371.62636
28371.09674
28370.70584
28370.44838
28370.32087
-0.02982989282
-0.01640078544
0.001248866761
0.01469224912
0.0163408279
-0.04595929348
-0.2195426109
0.1237930562
27278.30201
27492.77728
27687.96603
27856.2575
27994.90189
28105.19786
28190.5204
28254.97273
28302.6059
28337.03808
28361.31743
28377.91714
28388.79278
28395.46203
28399.08624
28400.54398
28400.49343
28399.42311
28397.69232
28395.56255
28393.22186
28390.80345
28388.39985
28386.07353
28383.86505
28381.79906
28379.88882
28378.13962
28376.55119
28375.11966
28373.83883
28372.70118
28371.69863
28370.823
28370.06638
28369.42143
28368.8815
28368.44075
28368.09428
28367.83809
28367.6692
28367.58559
-0.02247898727
-0.003573548907
0.02418503997
0.04202565183
0.06985543041
0.03090935524
-0.1423907998
-0.1959257849
27277.09608
27455.3531
27621.59137
27770.13
27897.76377
28004.09884
28090.55236
28159.47895
28213.55451
28255.40076
28287.38846
28311.55741
28329.60511
28342.9114
28352.57888
28359.47725
28364.28565
28367.5301
28369.61528
28370.85057
28371.47117
28371.65486
28371.53521
28371.21188
28370.7587
28370.22983
28369.66456
28369.09099
28368.52886
28367.99169
28367.48841
28367.02464
28366.60361
28366.22687
28365.89485
28365.60725
28365.36335
28365.16221
28365.00285
28364.88438
28364.80607
28364.76738
-0.02094847494
-0.001082118335
0.02693027049
0.04889598676
0.08223724422
0.07893158233
0.006421284829
-0.1702358647
27277.74401
27428.96853
27572.90075
27704.89349
27821.9155
27922.87694
28008.10998
28078.83682
28136.73411
28183.62413
28221.28049
28251.3211
28275.16085
28294.00143
28308.84231
28320.50202
28329.64322
28336.7977
28342.3894
28346.7545
28350.15858
28352.81079
28354.8754
28356.48126
28357.72922
28358.69818
28359.44977
28360.03213
28360.48279
28360.83106
28361.09975
28361.30664
28361.46558
28361.58732
28361.68021
28361.7507
28361.80377
28361.84321
28361.87188
28361.89187
28361.90465
28361.91116
-0.02446179851
-0.01236433484
0.002147549633
0.03293222198
0.08182982267
0.1251872944
0.154502947
0.00831088801
27277.25279
27409.21809
27536.13807
27654.61818
27762.12092
27857.37925
27940.17185
28011.0239
28070.92166
28121.08242
28162.7898
28197.2873
28225.7174
28249.09275
28268.28841
28284.04672
28296.98886
28307.62938
28316.39134
28323.62065
28329.59907
28334.55548
28338.67553
28342.1097
28344.97993
28347.38509
28349.40544
28351.10617
28352.54036
28353.75125
28354.77414
28355.63787
28356.36604
28356.97792
28357.48927
28357.91289
28358.25914
28358.53632
28358.75092
28358.90791
28359.01087
28359.06211
-0.03331236342
-0.03784849089
-0.03167021494
0.02478624545
0.1112394411
0.1764351392
0.2301113784
0.1667956591
27276.48944
27394.07532
27507.80849
27615.31406
27714.56575
27804.34382
27884.17228
27954.16451
28014.84629
28066.99476
28111.51001
28149.32214
28181.33002
28208.36508
28231.17319
28250.40889
28266.63738
28280.34086
28291.92715
28301.7389
28310.06274
28317.13769
28323.16272
28328.30326
28332.69689
28336.45802
28339.68192
28342.44799
28344.82247
28346.8607
28348.60895
28350.10595
28351.38407
28352.47036
28353.38737
28354.15377
28354.78493
28355.29334
28355.68892
28355.97933
28356.17014
28356.26499
-0.056384408
-0.06263357094
-0.04598765161
0.04981504245
0.164778449
0.217138437
0.2297610756
0.2317253604
27276.43919
27382.47149
27485.70345
27584.25996
27676.4807
27761.25532
27838.00722
27906.6147
27967.30402
28020.54067
28066.93405
28107.16213
28141.91652
28171.86549
28197.63153
28219.77946
28238.81208
28255.17072
28269.23865
28281.34621
28291.77646
28300.77101
28308.53557
28315.24492
28321.04753
28326.06938
28330.41746
28334.18263
28337.44207
28340.26137
28342.6963
28344.79419
28346.59522
28348.1334
28349.43739
28350.53121
28351.43481
28352.16453
28352.73345
28353.15171
28353.42674
28353.56339
-0.08886612865
-0.06251472048
-0.02394629245
0.09200436007
0.1987284273
0.2324594439
0.2093756782
0.2238875645
27276.38627
27373.40665
27468.27225
27559.53904
27645.83932
27726.18756
27799.98516
27866.98222
27927.21416
27980.92997
28028.52383
28070.47652
28107.30928
28139.54981
28167.70902
28192.2664
28213.66187
28232.29238
28248.51166
28262.63197
28274.92701
28285.63549
28294.96477
28303.09452
28310.1801
28316.35571
28321.73714
28326.42423
28330.50305
28334.0477
28337.12195
28339.78057
28342.07053
28344.03194
28345.6989
28347.10021
28348.25992
28349.19786
28349.92998
28350.46868
28350.82307
28350.99912
-0.106163994
-0.02849558225
0.01676274366
0.1183315597
0.1923072138
0.2136079453
0.1945892024
0.1979006658
27276.34712
27366.25307
27454.43912
27539.78291
27621.14826
27697.66896
27768.76254
27834.11417
27893.64011
27947.44128
27995.75511
28038.91139
28077.29498
28111.31626
28141.38926
28167.91622
28191.27763
28211.82634
28229.88473
28245.74408
28259.66525
28271.8803
28282.59466
28291.98944
28300.22384
28307.43743
28313.75237
28319.27535
28324.09944
28328.30569
28331.9645
28335.13692
28337.8757
28340.22624
28342.22739
28343.91213
28345.30815
28346.43836
28347.32127
28347.97131
28348.39909
28348.61159
-0.1017397968
0.008428154147
0.0422578904
0.1164631525
0.1648581836
0.1772261801
0.1758369558
0.1699726016
27276.3122
27360.58786
27443.44791
27524.00402
27601.30065
27674.57642
27743.28105
27807.07125
27865.79059
27919.43995
27968.14419
28012.11942
28051.64358
28087.03174
28118.61637
28146.73251
28171.70706
28193.8516
28213.45789
28230.79546
28246.11069
28259.62691
28271.54526
28282.04592
28291.28957
28299.41901
28306.56076
28312.82658
28318.31494
28323.11237
28327.29471
28330.92819
28334.07041
28336.77126
28339.07362
28341.0141
28342.62353
28343.92752
28344.94679
28345.69755
28346.19175
28346.43724
-0.07692779276
0.02793318773
0.04495702141
0.09789974447
0.1364457255
0.1473816315
0.1537291379
0.1475784368
27276.28069
27356.12002
27434.76047
27511.4838
27585.47308
27656.05425
27722.71338
27785.09877
27843.01085
27896.38377
27945.2625
27989.77889
28030.12873
28066.5514
28099.31273
28128.69121
28154.9674
28178.41607
28199.30077
28217.87023
28234.3562
28248.97249
28261.91469
28273.36055
28283.47067
28292.38948
28300.2463
28307.1565
28313.2226
28318.53542
28323.17508
28327.21201
28330.70781
28333.71607
28336.28307
28338.44845
28340.24571
28341.70274
28342.84217
28343.68173
28344.23449
28344.50908
-0.03806305885
0.03749494741
0.04343556796
0.07985008796
0.1102292688
0.1289559024
0.1361640985
0.1322530715
27276.2577
27352.64509
27427.99018
27501.6971
27573.05302
27641.4536
27706.41901
27767.5993
27824.77016
27877.82181
27926.74337
27971.60529
28012.54155
28049.73301
28083.39264
28113.753
28141.05611
28165.54542
28187.45986
28207.02948
28224.47246
28239.99325
28253.78158
28266.01206
28276.84425
28286.42313
28294.87968
28302.33175
28308.8848
28314.63288
28319.65946
28324.03826
28327.83406
28331.10346
28333.89548
28336.25225
28338.20947
28339.7969
28341.03877
28341.95405
28342.55678
28342.85618
0.01371509859
0.05407340563
0.05050147021
0.07172303116
0.09425591505
0.1160129005
0.1245155657
0.1210822004
27276.2432
27350.01634
27422.85821
27494.26101
27563.5879
27630.28773
27693.90947
27754.10906
27810.64863
27863.39001
27912.28408
27957.35767
27998.69962
28036.44703
28070.77249
28101.87281
28129.95944
28155.25053
28177.96473
28198.31637
28216.51192
28232.74754
28247.20744
28260.06299
28271.47231
28281.58027
28290.51877
28298.40723
28305.35321
28311.45312
28316.7929
28321.44879
28325.48803
28328.96953
28331.94448
28334.45694
28336.54436
28338.23799
28339.56331
28340.5403
28341.18375
28341.50339
0.0914643461
0.09262468337
0.06752613587
0.0652776732
0.08550432257
0.1107626959
0.12085776
0.1190842112
27276.23708
27348.12854
27419.16557
27488.90055
27556.74958
27622.19966
27684.82189
27744.27871
27800.32525
27852.80563
27901.6455
27946.84204
27988.45269
28026.58354
28061.37811
28093.00705
28121.6591
28147.53339
28170.83309
28191.76033
28210.51235
28227.2786
28242.23873
28255.56127
28267.40289
28277.90806
28287.20909
28295.42641
28302.66895
28309.03475
28314.6115
28319.47727
28323.70106
28327.34347
28330.45729
28333.08801
28335.27438
28337.04875
28338.43753
28339.46146
28340.13589
28340.47092
0.2166058242
0.1438681499
0.07999995089
0.0582074033