/*--------------------------------*- C++ -*----------------------------------*\
  =========                 |
  \\      /  F ield         | OpenFOAM: The Open Source CFD Toolbox
   \\    /   O peration     | Website:  https://openfoam.org
    \\  /    A nd           | Version:  6
     \\/     M anipulation  |
\*---------------------------------------------------------------------------*/
FoamFile
{
    version     2.0;
    format      ascii;
    class       surfaceScalarField;
    location    "0.08";
    object      phi;
}
// * * * * * * * * * * * * * * * * * * * * * * * * * * * * * * * * * * * * * //

dimensions      [0 3 -1 0 0 0 0];

internalField   nonuniform List<scalar> 
4900
(
-3.144213188e-08
-9.194567417e-08
2.308114037e-08
-5.452327217e-08
4.154435838e-08
-1.846321802e-08
3.912769934e-08
2.416659032e-09
2.608757191e-08
1.304012742e-08
1.120513397e-08
1.488243789e-08
5.632505563e-10
1.064188336e-08
2.699663409e-17
5.632504867e-10
-6.987728475e-21
3.057768677e-24
-6.928486418e-21
-5.924205657e-23
-6.811269232e-21
-1.172203083e-22
-6.640504711e-21
-1.707715386e-22
-6.42204879e-21
-2.184665993e-22
-6.162905603e-21
-2.591574259e-22
-5.870802861e-21
-2.921204954e-22
-5.553744782e-21
-3.170793081e-22
-5.219603087e-21
-3.341663567e-22
-4.875780142e-21
-3.43850993e-22
-4.528959947e-21
-3.468515735e-22
-4.184948819e-21
-3.440457783e-22
-3.84859783e-21
-3.363888437e-22
-3.523793317e-21
-3.248455018e-22
-3.213499305e-21
-3.103380577e-22
-2.919835809e-21
-2.937105167e-22
-2.644178671e-21
-2.757070489e-22
-2.387269152e-21
-2.569622293e-22
-2.149324324e-21
-2.380002453e-22
-1.930141949e-21
-2.192404021e-22
-1.729195859e-21
-2.010066261e-22
-1.545719681e-21
-1.835391215e-22
-1.378778127e-21
-1.670067982e-22
-1.227326064e-21
-1.515195033e-22
-1.090256156e-21
-1.371394338e-22
-9.664362845e-22
-1.238913738e-22
-8.547380518e-22
-1.117715999e-22
-7.540577404e-22
-1.007554314e-22
-6.633310078e-22
-9.080349257e-23
-5.815424897e-22
-8.186680487e-23
-5.077313392e-22
-7.389085056e-23
-4.409935799e-22
-6.681875894e-23
-3.80482006e-22
-6.05937595e-23
-3.254042281e-22
-5.516103604e-23
-2.750193442e-22
-5.046910126e-23
-2.286336112e-22
-4.647079656e-23
-1.855953986e-22
-4.312400965e-23
-1.452896165e-22
-4.039220042e-23
-1.071316889e-22
-3.82448551e-23
-7.05608786e-23
-3.665813569e-23
-3.503188784e-23
-3.561660279e-23
-3.511967516e-23
-6.391292662e-08
-1.317777628e-07
-2.425093877e-08
-9.418525997e-08
-1.105817107e-09
-4.160833967e-08
6.877438687e-09
-5.56659675e-09
6.505212354e-09
1.341235373e-08
3.23190061e-09
1.815574957e-08
-2.641222393e-10
1.413790615e-08
-2.097931204e-17
2.991282994e-10
-7.048842695e-21
1.559903668e-24
-6.986452566e-21
-1.21638416e-22
-6.864813308e-21
-2.388726215e-22
-6.688194031e-21
-3.474105943e-22
-6.462735995e-21
-4.439508123e-22
-6.195867283e-21
-5.260585955e-22
-5.895762327e-21
-5.922641149e-22
-5.570834167e-21
-6.420522595e-22
-5.229291305e-21
-6.757600508e-22
-4.8787851e-21
-6.944139718e-22
-4.526158918e-21
-6.995403636e-22
-4.177296699e-21
-6.929763207e-22
-3.837059091e-21
-6.767003602e-22
-3.509290085e-21
-6.526938657e-22
-3.196875477e-21
-6.22837325e-22
-2.901835507e-21
-5.888402949e-22
-2.625436466e-21
-5.522008856e-22
-2.368309259e-21
-5.141890511e-22
-2.130566095e-21
-4.758476694e-22
-1.911909369e-21
-4.380058553e-22
-1.711729195e-21
-4.012998102e-22
-1.529187903e-21
-3.661975179e-22
-1.36329114e-21
-3.330245684e-22
-1.212946115e-21
-3.019892446e-22
-1.077008074e-21
-2.732057024e-22
-9.543163842e-22
-2.467146047e-22
-8.437216836e-22
-2.225009535e-22
-7.441055542e-22
-2.005091242e-22
-6.543940453e-22
-1.806552729e-22
-5.73566249e-22
-1.628373775e-22
-5.006589619e-22
-1.469432157e-22
-4.347683047e-22
-1.328565926e-22
-3.750490237e-22
-1.204621126e-22
-3.207120563e-22
-1.096487684e-22
-2.710208279e-22
-1.003125854e-22
-2.252866408e-22
-9.235852887e-23
-1.828634362e-22
-8.570184801e-23
-1.431421516e-22
-8.026900767e-23
-1.055448922e-22
-7.599832759e-23
-6.95193427e-23
-7.28403931e-23
-3.453494178e-23
-7.075801708e-23
-6.972392708e-23
-8.5539913e-08
-1.512415315e-07
-4.924131679e-08
-1.304838561e-07
-1.948731466e-08
-7.136234178e-08
-6.450844839e-09
-1.86030666e-08
-3.159153852e-09
1.012066271e-08
-1.344980704e-09
1.634157632e-08
-4.864199592e-10
1.327934526e-08
-8.931115396e-18
-1.872917276e-10
-7.170685159e-21
-1.006871584e-24
-7.103663893e-21
-1.886647857e-22
-6.97333478e-21
-3.692126102e-22
-6.784722086e-21
-5.360399746e-22
-6.544836434e-21
-6.838587112e-22
-6.262070228e-21
-8.088525228e-22
-5.945552154e-21
-9.088153221e-22
-5.604547086e-21
-9.83095808e-22
-5.247952851e-21
-1.032398037e-21
-4.883920671e-21
-1.058495091e-21
-4.519604762e-21
-1.063910304e-21
-4.16103064e-21
-1.051609464e-21
-3.813061995e-21
-1.024732906e-21
-3.479442089e-21
-9.863824322e-22
-3.162885936e-21
-9.394667714e-22
-2.865202446e-21
-8.866015767e-22
-2.587429845e-21
-8.30055639e-22
-2.329972023e-21
-7.717332394e-22
-2.092727463e-21
-7.131826586e-22
-1.875205665e-21
-6.556219895e-22
-1.676628532e-21
-5.99975027e-22
-1.496015996e-21
-5.46911721e-22
-1.332256388e-21
-4.968892608e-22
-1.184162777e-21
-4.501911882e-22
-1.050516903e-21
-4.069629861e-22
-9.301024563e-22
-3.672433645e-22
-8.217294365e-22
-3.309910151e-22
-7.242511941e-22
-2.981069614e-22
-6.365755899e-22
-2.684528488e-22
-5.576715074e-22
-2.418656316e-22
-4.865717628e-22
-2.181691548e-22
-4.223732706e-22
-1.971831252e-22
-3.642351604e-22
-1.787299322e-22
-3.113753989e-22
-1.626397317e-22
-2.630663482e-22
-1.487541544e-22
-2.186295927e-22
-1.369289433e-22
-1.774302879e-22
-1.270357774e-22
-1.388712247e-22
-1.189634864e-22
-1.023867719e-22
-1.126188127e-22
-6.743683024e-23
-1.079268098e-22
-3.350073471e-23
-1.048308534e-22
-1.032921874e-22
-1.005207926e-07
-1.562969288e-07
-7.196570708e-08
-1.590389416e-07
-3.680132077e-08
-1.06526728e-07
-1.312228617e-08
-4.228210119e-08
-5.926501603e-09
2.924878175e-09
-2.779661511e-09
1.319473621e-08
-3.465243902e-10
1.084620807e-08
2.075569534e-17
-5.338161758e-10
-7.358538086e-21
-3.572770431e-24
-7.284179254e-21
-2.630286408e-22
-7.140135727e-21
-5.132668197e-22
-6.932521755e-21
-7.436703432e-22
-6.66981922e-21
-9.465831223e-22
-6.362029768e-21
-1.116669248e-21
-6.019836152e-21
-1.251041548e-21
-5.653858168e-21
-1.349111674e-21
-5.274062508e-21
-1.412236777e-21
-4.8893507e-21
-1.443255095e-21
-4.507319611e-21
-1.445994611e-21
-4.13416958e-21
-1.424817636e-21
-3.774726056e-21
-1.38423938e-21
-3.432539499e-21
-1.328636634e-21
-3.11003208e-21
-1.262046405e-21
-2.808666026e-21
-1.188044282e-21
-2.529115185e-21
-1.109687432e-21
-2.271427531e-21
-1.029506e-21
-2.035171412e-21
-9.49527892e-22
-1.819562052e-21
-8.713243173e-22
-1.623567512e-21
-7.96066231e-22
-1.445994954e-21
-7.245844777e-22
-1.285559044e-21
-6.574287402e-22
-1.14093477e-21
-5.949222355e-22
-1.010797076e-21
-5.372104878e-22
-8.938496129e-22
-4.843034994e-22
-7.888446918e-22
-4.361112999e-22
-6.945962671e-22
-3.924732685e-22
-6.099874926e-22
-3.531818505e-22
-5.339741297e-22
-3.180013919e-22
-4.655848458e-22
-2.866828321e-22
-4.039192289e-22
-2.589749568e-22
-3.481441685e-22
-2.346328542e-22
-2.974891007e-22
-2.134241342e-22
-2.512404958e-22
-1.951333929e-22
-2.087358713e-22
-1.795653274e-22
-1.693575307e-22
-1.665468305e-22
-1.325261766e-22
-1.559283335e-22
-9.769448604e-23
-1.475846043e-22
-6.434068018e-23
-1.414151522e-22
-3.196197132e-23
-1.373443605e-22
-1.35321529e-22
-1.103677359e-07
-1.487330064e-07
-9.335175961e-08
-1.76054918e-07
-5.781950448e-08
-1.420589832e-07
-2.252625602e-08
-7.757534965e-08
-5.720669935e-09
-1.388070789e-08
-2.739155388e-09
1.021322166e-08
-2.165843943e-10
8.323637052e-09
3.031700325e-17
-7.50400594e-10
-7.619012106e-21
-5.210274422e-24
-7.534370758e-21
-3.476750086e-22
-7.370501004e-21
-6.771472438e-22
-7.135407872e-21
-9.787798535e-22
-6.839890913e-21
-1.242121932e-21
-6.496399118e-21
-1.460188285e-21
-6.117913049e-21
-1.629560191e-21
-5.716997442e-21
-1.750065122e-21
-5.305099945e-21
-1.824177308e-21
-4.892112008e-21
-1.856291175e-21
-4.486165195e-21
-1.851994586e-21
-4.093613193e-21
-1.817427715e-21
-3.719143483e-21
-1.758771973e-21
-3.365967138e-21
-1.681880552e-21
-3.036045235e-21
-1.592040445e-21
-2.730321822e-21
-1.493844264e-21
-2.448943889e-21
-1.391146229e-21
-2.191457277e-21
-1.287077627e-21
-1.956973691e-21
-1.184100496e-21
-1.74430812e-21
-1.084082756e-21
-1.552088507e-21
-9.883824024e-22
-1.378840833e-21
-8.979322413e-22
-1.223053267e-21
-8.133197621e-22
-1.083223073e-21
-7.348590863e-22
-9.578896386e-22
-6.626536095e-22
-8.456566113e-22
-5.966490746e-22
-7.452056236e-22
-5.366775242e-22
-6.553036717e-22
-4.824929724e-22
-5.748057896e-22
-4.337998264e-22
-5.026543146e-22
-3.902751285e-22
-4.378757466e-22
-3.515856548e-22
-3.79575965e-22
-3.174008122e-22
-3.26934372e-22
-2.874021657e-22
-2.791973834e-22
-2.612903121e-22
-2.356715652e-22
-2.387896975e-22
-1.957166268e-22
-2.196518763e-22
-1.587384079e-22
-2.036576109e-22
-1.241819451e-22
-1.906181363e-22
-9.152465601e-23
-1.803758396e-22
-6.026963511e-23
-1.728045528e-22
-2.993901389e-23
-1.67809622e-22
-1.653279125e-22
-1.114375543e-07
-1.291528121e-07
-1.099296707e-07
-1.775628016e-07
-8.119860462e-08
-1.707900494e-07
-4.029127167e-08
-1.184826827e-07
-9.786701367e-09
-4.438527821e-08
-2.591793789e-09
3.018314078e-09
-3.885900352e-10
6.120433272e-09
8.300922883e-18
-1.13899062e-09
-7.962948375e-21
-6.901806904e-24
-7.863776793e-21
-4.468516119e-22
-7.672081404e-21
-8.688533074e-22
-7.398715044e-21
-1.252162597e-21
-7.057940173e-21
-1.582918661e-21
-6.665770147e-21
-1.852385562e-21
-6.238430326e-21
-2.056932595e-21
-5.791131572e-21
-2.197401728e-21
-5.337241722e-21
-2.278110205e-21
-4.887846093e-21
-2.30573496e-21
-4.451629207e-21
-2.288264647e-21
-4.034986697e-21
-2.234128317e-21
-3.642278482e-21
-2.151543087e-21
-3.276149983e-21
-2.048076639e-21
-2.937868317e-21
-1.930394265e-21
-2.627639439e-21
-1.804149729e-21
-2.344887594e-21
-1.673978956e-21
-2.088489484e-21
-1.543560771e-21
-1.856962741e-21
-1.415716276e-21
-1.64861243e-21
-1.292525952e-21
-1.461641284e-21
-1.175450127e-21
-1.294229925e-21
-1.065443709e-21
-1.14459311e-21
-9.630600535e-22
-1.011017326e-21
-8.685415463e-22
-8.918842652e-22
-7.818963776e-22
-7.856838322e-22
-7.029620754e-22
-6.910195951e-22
-6.314570175e-22
-6.06608912e-22
-5.670214272e-22
-5.312794266e-22
-5.09249425e-22
-4.639631889e-22
-4.577136469e-22
-4.036893127e-22
-4.11983805e-22
-3.495758223e-22
-3.716403951e-22
-3.008211413e-22
-3.362845836e-22
-2.566955272e-22
-3.055451334e-22
-2.165326483e-22
-2.790830805e-22
-1.79721418e-22
-2.56594734e-22
-1.456981456e-22
-2.378134611e-22
-1.139390178e-22
-2.225106195e-22
-8.395289614e-23
-2.104959217e-22
-5.527438878e-23
-2.016174532e-22
-2.745714687e-23
-1.957615168e-22
-1.928524436e-22
-9.960846035e-08
-9.952525503e-08
-1.161126565e-07
-1.610586054e-07
-1.012841266e-07
-1.856185793e-07
-6.179038051e-08
-1.579764288e-07
-1.961984487e-08
-8.655581393e-08
-1.776224129e-09
-1.482530669e-08
-4.738228647e-10
4.818031975e-09
-2.020681799e-17
-1.612813477e-09
-8.40534091e-21
-8.753042801e-24
-8.285690828e-21
-5.665067188e-22
-8.05532145e-21
-1.099233364e-21
-7.729427449e-21
-1.57807299e-21
-7.327388911e-21
-1.984979067e-21
-6.870321361e-21
-2.309480374e-21
-6.378921006e-21
-2.548365547e-21
-5.871873391e-21
-2.70448721e-21
-5.36490638e-21
-2.785120279e-21
-4.870417888e-21
-2.800271627e-21
-4.397533933e-21
-2.761201798e-21
-3.952439283e-21
-2.679281081e-21
-3.538845343e-21
-2.56519995e-21
-3.158495865e-21
-2.428493731e-21
-2.811646952e-21
-2.277315358e-21
-2.497487055e-21
-2.11838624e-21
-2.214483511e-21
-1.957063411e-21
-1.96065539e-21
-1.797473955e-21
-1.733779719e-21
-1.642681013e-21
-1.53154138e-21
-1.494857208e-21
-1.351637635e-21
-1.355450482e-21
-1.191847483e-21
-1.225334002e-21
-1.050074645e-21
-1.1049364e-21
-9.243713468e-22
-9.943515541e-22
-8.129485566e-22
-8.934289087e-22
-7.141769771e-22
-8.018462566e-22
-6.26581977e-22
-7.191673081e-22
-5.488347744e-22
-6.448864361e-22
-4.797414984e-22
-5.78462849e-22
-4.182312506e-22
-5.193462102e-22
-3.633439097e-22
-4.669954545e-22
-3.142181555e-22
-4.208922766e-22
-2.700799971e-22
-3.805505135e-22
-2.302319566e-22
-3.455224156e-22
-1.940429693e-22
-3.154026057e-22
-1.609390025e-22
-2.898303617e-22
-1.30394353e-22
-2.684907213e-22
-1.019235608e-22
-2.511147994e-22
-7.507385934e-23
-2.374796154e-22
-4.941807427e-23
-2.274076623e-22
-2.454788484e-23
-2.207663898e-22
-2.174677297e-22
-7.352639863e-08
-6.43715576e-08
-1.06955362e-07
-1.276296419e-07
-1.116584828e-07
-1.809154585e-07
-8.27226031e-08
-1.869123086e-07
-3.604959666e-08
-1.332288204e-07
-3.920157799e-09
-4.695474559e-08
-4.554140453e-10
1.353288203e-09
-2.88939879e-17
-2.068227523e-09
-8.967121536e-21
-1.113350697e-23
-8.818306467e-21
-7.153268163e-22
-8.534070936e-21
-1.383479577e-21
-8.136281184e-21
-1.97587914e-21
-7.651874136e-21
-2.469407993e-21
-7.109220746e-21
-2.852161039e-21
-6.535078983e-21
-3.122539922e-21
-5.952556432e-21
-3.287047644e-21
-5.380113975e-21
-3.357605818e-21
-4.831404864e-21
-3.349028934e-21
-4.315666633e-21
-3.276993246e-21
-3.838405802e-21
-3.156600049e-21
-3.402179869e-21
-3.001488829e-21
-3.007351086e-21
-2.823390154e-21
-2.652744612e-21
-2.631994038e-21
-2.336184857e-21
-2.435022638e-21
-2.054909369e-21
-2.238419838e-21
-1.805873311e-21
-2.046595106e-21
-1.585963155e-21
-1.862680267e-21
-1.392139021e-21
-1.688774291e-21
-1.2215233e-21
-1.526162846e-21
-1.071450353e-21
-1.375507125e-21
-9.394890487e-22
-1.237001247e-21
-8.234470927e-22
-1.110500254e-21
-7.213637252e-22
-9.956220526e-22
-6.314955024e-22
-8.918271171e-22
-5.52298403e-22
-7.984797343e-22
-4.824084373e-22
-7.148942444e-22
-4.206221558e-22
-6.403693152e-22
-3.658779048e-22
-5.742128136e-22
-3.172383022e-22
-5.157594026e-22
-2.738741547e-22
-4.643825881e-22
-2.350498733e-22
-4.195026031e-22
-2.001103439e-22
-3.805912231e-22
-1.684691511e-22
-3.471743729e-22
-1.395980183e-22
-3.188331915e-22
-1.130173166e-22
-2.952040693e-22
-8.828748966e-23
-2.759780492e-22
-6.50012438e-23
-2.60899888e-22
-4.277636162e-23
-2.497670027e-22
-2.124900512e-23
-2.424284636e-22
-2.387841537e-22
-3.770724318e-08
-3.077674692e-08
-8.148815478e-08
-8.384873025e-08
-1.071341439e-07
-1.552694693e-07
-9.684198087e-08
-1.972044716e-07
-5.492290637e-08
-1.75147895e-07
-1.118662131e-08
-9.069103068e-08
-2.932488954e-10
-9.540084206e-09
-2.175180609e-17
-2.361476395e-09
-9.677548143e-21
-1.445257794e-23
-9.486307173e-21
-9.065728169e-22
-9.126355023e-21
-1.743442415e-21
-8.629750513e-21
-2.472500056e-21
-8.034619134e-21
-3.064561258e-21
-7.379632057e-21
-3.507175403e-21
-6.699646219e-21
-3.802558385e-21
-6.023188591e-21
-3.963543171e-21
-5.371615399e-21
-4.009222109e-21
-4.759444624e-21
-3.961247923e-21
-4.195341591e-21
-3.841149517e-21
-3.683353205e-21
-3.668646594e-21
-3.224129625e-21
-3.460775381e-21
-2.81599357e-21
-3.231593873e-21
-2.455802925e-21
-2.992256917e-21
-2.139604102e-21
-2.751298131e-21
-1.863100296e-21
-2.515004614e-21
-1.621968967e-21
-2.287811558e-21
-1.412063609e-21
-2.072674755e-21
-1.229530885e-21
-1.871399996e-21
-1.070868553e-21
-1.684921854e-21
-9.329437534e-22
-1.513532134e-21
-8.129861484e-22
-1.35706243e-21
-7.085661961e-22
-1.215026986e-21
-6.175656137e-22
-1.086732447e-21
-5.381446937e-22
-9.71360711e-22
-4.687094087e-22
-8.680303827e-22
-4.078800494e-22
-7.758414834e-22
-3.544623294e-22
-6.939072571e-22
-3.074213629e-22
-6.2137617e-22
-2.658585903e-22
-5.574465582e-22
-2.289915298e-22
-5.013758502e-22
-1.96136124e-22
-4.524858547e-22
-1.666914003e-22
-4.101652624e-22
-1.401261525e-22
-3.738702322e-22
-1.15967352e-22
-3.431237257e-22
-9.379002073e-23
-3.175140835e-22
-7.320831597e-23
-2.966932129e-22
-5.386760415e-23
-2.803746623e-22
-3.543732215e-23
-2.683317782e-22
-1.760444581e-23
-2.603960923e-22
-2.564560364e-22
-2.015767764e-09
-8.033867966e-09
-4.511860427e-08
-4.074589379e-08
-8.724543856e-08
-1.13142635e-07
-9.946627983e-08
-1.849836304e-07
-7.121336026e-08
-2.034008145e-07
-2.286822655e-08
-1.390361644e-07
7.150576681e-10
-3.31233684e-08
-1.771315299e-17
-1.646418657e-09
-1.057725089e-20
-1.726668358e-23
-1.032294464e-20
-1.160884105e-21
-9.855266817e-21
-2.211130925e-21
-9.221749432e-21
-3.106033854e-21
-8.477244244e-21
-3.809088341e-21
-7.675079057e-21
-4.309367887e-21
-6.860726325e-21
-4.616943756e-21
-6.068975672e-21
-4.755331738e-21
-5.323748764e-21
-4.754492134e-21
-4.63944475e-21
-4.645600171e-21
-4.022923804e-21
-4.457723722e-21
-3.475552254e-21
-4.216076325e-21
-2.995003875e-21
-3.941386754e-21
-2.576699273e-21
-3.649966166e-21
-2.214875572e-21
-3.354152878e-21
-1.90333276e-21
-3.062917642e-21
-1.635922022e-21
-2.78249635e-21
-1.406841197e-21
-2.516977538e-21
-1.210793527e-21
-2.268811586e-21
-1.043054207e-21
-2.03923233e-21
-8.994779956e-22
-1.828594774e-21
-7.764716248e-22
-1.636638748e-21
-6.709472417e-22
-1.462690426e-21
-5.802675698e-22
-1.305813473e-21
-5.021894738e-22
-1.164920391e-21
-4.348098684e-22
-1.038853027e-21
-3.765160781e-22
-9.264395732e-22
-3.259415677e-22
-8.265339105e-22
-2.81927236e-22
-7.38041848e-22
-2.4348804e-22
-6.599377932e-22
-2.097844928e-22
-5.91274526e-22
-1.800984792e-22
-5.31188103e-22
-1.538128136e-22
-4.788994038e-22
-1.303939859e-22
-4.337134432e-22
-1.093775886e-22
-3.950172784e-22
-9.035596993e-23
-3.622771154e-22
-7.296771852e-23
-3.350350547e-22
-5.688863254e-23
-3.129057946e-22
-4.182387806e-23
-2.955735156e-22
-2.750107856e-23
-2.827891073e-22
-1.366411224e-23
-2.743678467e-22
-2.701876037e-22
2.003112395e-08
-3.42356594e-10
-9.330921484e-09
-1.138384841e-08
-5.74181081e-08
-6.505544842e-08
-9.036557649e-08
-1.520361621e-07
-8.185253889e-08
-2.119138521e-07
-3.782146421e-08
-1.83067239e-07
-5.091842431e-11
-7.089391413e-08
-1.858729099e-17
-1.697336976e-09
-1.172795821e-20
-1.05004574e-22
-1.137286764e-20
-1.515979711e-21
-1.074998736e-20
-2.834021902e-21
-9.924749184e-21
-3.931288451e-21
-8.97757392e-21
-4.756285508e-21
-7.982772265e-21
-5.304196848e-21
-6.999263901e-21
-5.600484771e-21
-6.068291786e-21
-5.686341782e-21
-5.215002028e-21
-5.607825025e-21
-4.451694296e-21
-5.408956155e-21
-3.781380007e-21
-5.128091289e-21
-3.200944215e-21
-4.796570321e-21
-2.703644967e-21
-4.43874902e-21
-2.280930836e-21
-4.072748012e-21
-1.923671518e-21
-3.711484482e-21
-1.622931916e-21
-3.363733969e-21
-1.370415467e-21
-3.035093825e-21
-1.158681421e-21
-2.728796768e-21
-9.812160525e-22
-2.446366145e-21
-8.324153556e-22
-2.188126072e-21
-7.075186059e-22
-1.953588265e-21
-6.025186262e-22
-1.741739004e-21
-5.14064856e-22
-1.551247843e-21
-4.393687013e-22
-1.380616477e-21
-3.761162539e-22
-1.228282722e-21
-3.223906875e-22
-1.092691339e-21
-2.766049473e-22
-9.723407499e-22
-2.374443798e-22
-8.658124314e-22
-2.038184473e-22
-7.717880768e-22
-1.748204551e-22
-6.890582499e-22
-1.496941759e-22
-6.165252632e-22
-1.278063065e-22
-5.532022493e-22
-1.086237895e-22
-4.982098416e-22
-9.169515328e-23
-4.5077147e-22
-7.663513691e-23
-4.102079811e-22
-6.31119835e-23
-3.75932077e-22
-5.083687992e-23
-3.474429151e-22
-3.955510853e-23
-3.243210984e-22
-2.903854651e-23
-3.06224213e-22
-1.90792075e-23
-2.928830122e-22
-9.483565519e-24
-2.840983128e-22
-2.797386422e-22
2.658120133e-08
4.323606869e-10
1.432761188e-08
8.697410342e-10
-2.613639897e-08
-2.45914376e-08
-7.32770792e-08
-1.048954819e-07
-8.700496642e-08
-1.981859649e-07
-5.440217341e-08
-2.15670032e-07
-6.040410459e-09
-1.19255677e-07
-1.566672139e-17
-7.737747323e-09
-1.315036058e-20
-1.123729722e-22
-1.269027212e-20
-1.9760732e-21
-1.184699596e-20
-3.677308763e-21
-1.074972173e-20
-5.028579106e-21
-9.525612124e-21
-5.980417028e-21
-8.279265766e-21
-6.550570522e-21
-7.085350909e-21
-6.79443229e-21
-5.989994941e-21
-6.781735693e-21
-5.016324818e-21
-6.581538297e-21
-4.170986061e-21
-6.254343182e-21
-3.449980786e-21
-5.849149862e-21
-2.843213505e-21
-5.403395826e-21
-2.337708545e-21
-4.944317021e-21
-1.919711191e-21
-4.490813105e-21
-1.575949001e-21
-4.055318983e-21
-1.294307946e-21
-3.645451776e-21
-1.064126038e-21
-3.265356789e-21
-8.762524282e-22
-2.91675559e-21
-7.22973547e-22
-2.599734248e-21
-5.978724876e-22
-2.313320208e-21
-4.956626993e-22
-2.055894827e-21
-4.120199795e-22
-1.825482033e-21
-3.434256853e-22
-1.619945817e-21
-2.870271746e-22
-1.437121872e-21
-2.405173673e-22
-1.274902448e-21
-2.02033009e-22
-1.131288479e-21
-1.700700403e-22
-1.004419191e-21
-1.434139807e-22
-8.925864806e-22
-1.210831343e-22
-7.942392558e-22
-1.022825361e-22
-7.079813493e-22
-8.636676695e-23
-6.325655272e-22
-7.281001745e-23
-5.668853125e-22
-6.118202351e-23
-5.099657934e-22
-5.112872898e-23
-4.609541921e-22
-4.235672958e-23
-4.191107036e-22
-3.462072538e-23
-3.837999262e-22
-2.771335183e-23
-3.54483082e-22
-2.14568774e-23
-3.307111417e-22
-1.569635018e-23
-3.121189118e-22
-1.029385095e-23
-2.984201133e-22
-5.123568321e-24
-2.894034553e-22
-2.849297012e-22
2.701654889e-08
5.942655363e-10
2.412491384e-08
3.761376102e-09
-5.286285605e-10
6.210477719e-11
-5.207110959e-08
-5.335300091e-08
-8.741336333e-08
-1.628437112e-07
-7.188492779e-08
-2.311984675e-07
-1.894336718e-08
-1.721972376e-07
-2.164338587e-17
-2.668111442e-08
-1.505293082e-20
-7.918437613e-23
-1.439078114e-20
-2.638227909e-21
-1.31980183e-20
-4.870082306e-21
-1.170164757e-20
-6.524966276e-21
-1.009604183e-20
-7.586044683e-21
-8.523475641e-21
-8.123164041e-21
-7.072999234e-21
-8.24494137e-21
-5.790099847e-21
-8.064673035e-21
-4.68937459e-21
-7.682306718e-21
-3.765979882e-21
-7.177786177e-21
-3.00436292e-21
-6.610820141e-21
-2.384229207e-21
-6.023587784e-21
-1.884266821e-21
-5.44434247e-21
-1.484255174e-21
-4.890892515e-21
-1.166102541e-21
-4.373543953e-21
-9.142215844e-22
-3.89740951e-21
-7.155252854e-22
-3.464134169e-21
-5.592262365e-22
-3.07313988e-21
-4.365514255e-22
-2.72249831e-21
-3.404372357e-22
-2.409527505e-21
-2.652392333e-22
-2.131189634e-21
-2.064729489e-22
-1.884348658e-21
-1.605912076e-22
-1.665931271e-21
-1.247977601e-22
-1.473022236e-21
-9.689409938e-23
-1.30291606e-21
-7.51551842e-23
-1.15314021e-21
-5.822957791e-23
-1.021460304e-21
-4.505977791e-23
-9.058743051e-22
-3.48189942e-23
-8.046004075e-22
-2.686118371e-23
-7.160616966e-22
-2.068167958e-23
-6.38869562e-22
-1.588623607e-23
-5.718071056e-22
-1.21667246e-23
-5.138132987e-22
-9.282064631e-24
-4.639683157e-22
-7.043259244e-24
-4.214802682e-22
-5.301636914e-24
-3.856734294e-22
-3.939586137e-24
-3.55977962e-22
-2.86321662e-24
-3.319211156e-22
-1.996495609e-24
-3.131198397e-22
-1.276497012e-24
-2.992747489e-22
-6.49468648e-25
-2.901653785e-22
-2.856466775e-22
2.804566876e-08
1.344795541e-09
2.675486873e-08
5.052176145e-09
1.636441746e-08
1.045255606e-08
-2.777891119e-08
-9.209672275e-09
-8.122660754e-08
-1.093960149e-07
-8.862815213e-08
-2.237969228e-07
-3.843041348e-08
-2.223949761e-07
-3.939719644e-17
-6.511152794e-08
-1.772757082e-20
-4.320230567e-22
-1.662215426e-20
-3.743649504e-21
-1.485281778e-20
-6.6394295e-21
-1.276307377e-20
-8.614726721e-21
-1.063370311e-20
-9.715437266e-21
-8.645818711e-21
-1.011107578e-20
-6.893230234e-21
-9.997562531e-21
-5.408133064e-21
-9.549808173e-21
-4.185152534e-21
-8.905330426e-21
-3.199224746e-21
-8.163762267e-21
-2.417271862e-21
-7.39282636e-21
-1.805072975e-21
-6.635844935e-21
-1.330868437e-21
-5.918610091e-21
-9.669322114e-22
-5.254896524e-21
-6.899763535e-22
-4.65057217e-21
-4.809433778e-22
-4.106519289e-21
-3.245213751e-22
-3.620637279e-21
-2.085712731e-22
-3.189175249e-21
-1.235654453e-22
-2.807593416e-21
-6.208369598e-23
-2.471102389e-21
-1.83829002e-23
-2.174987264e-21
1.195900685e-23
-1.914790936e-21
3.233134784e-23
-1.686407355e-21
4.532077322e-23
-1.48611861e-21
5.289291806e-23
-1.310598189e-21
5.653472777e-23
-1.156894868e-21
5.73653265e-23
-1.022406443e-21
5.622200133e-23
-9.048490381e-22
5.372665716e-23
-8.022254652e-22
5.033703318e-23
-7.127946435e-22
4.638607998e-23
-6.350431738e-22
4.211216832e-23
-5.676595782e-22
3.768221646e-23
-5.095113754e-22
3.320936036e-23
-4.596249579e-22
2.87664277e-23
-4.171681293e-22
2.439619339e-23
-3.814351106e-22
2.011917484e-23
-3.518338071e-22
1.593955567e-23
-3.278751352e-22
1.184969718e-23
-3.091642224e-22
7.833598411e-24
-2.953933211e-22
3.869592028e-24
-2.863363007e-22
-2.818446093e-22
3.12946573e-08
2.125395308e-09
2.98128033e-08
6.534030146e-09
2.692806434e-08
1.333729504e-08
-3.134392431e-10
1.803183132e-08
-6.300916423e-08
-4.670028992e-08
-9.874727956e-08
-1.880588075e-07
-6.132731666e-08
-2.59814939e-07
-3.655116574e-17
-1.264388448e-07
-2.130961847e-20
-8.772322885e-22
-1.951721472e-20
-5.5360583e-21
-1.682834138e-20
-9.328313548e-21
-1.386462891e-20
-1.157845564e-20
-1.103031951e-20
-1.25497686e-20
-8.533179176e-21
-1.260824346e-20
-6.446163141e-21
-1.208461126e-20
-4.764153421e-21
-1.123185587e-20
-3.443923042e-21
-1.0225604e-20
-2.428505541e-21
-9.179228086e-21
-1.660419491e-21
-8.160965761e-21
-1.087907087e-21
-7.208415621e-21
-6.671842759e-22
-6.339396004e-21
-3.626123216e-22
-5.559536283e-21
-1.459130101e-22
-4.867343862e-21
4.957354837e-24
-4.257466479e-21
1.069633287e-22
-3.722724383e-21
1.73034488e-22
-3.255331701e-21
2.129491404e-22
-2.847597372e-21
2.340537027e-22
-2.492300113e-21
2.418339475e-22
-2.18286437e-21
2.403611692e-22
-1.913418557e-21
2.326367186e-22
-1.678786677e-21
2.208559448e-22
-1.474444815e-21
2.066092453e-22
-1.296461504e-21
1.910345681e-22
-1.14143307e-21
1.749327136e-22
-1.00642016e-21
1.588542766e-22
-8.888886909e-22
1.431650432e-22
-7.866566657e-22
1.280950581e-22
-6.978472616e-22
1.137753361e-22
-6.208480494e-22
1.002652375e-22
-5.542758964e-22
8.757279354e-23
-4.969469927e-22
7.566971666e-23
-4.478514121e-22
6.450240589e-23
-4.061316451e-22
5.399994139e-23
-3.710645943e-22
4.407982043e-23
-3.420465826e-22
3.465200673e-23
-3.185809929e-22
2.562172871e-23
-3.00268218e-22
1.689136135e-23
-2.867976571e-22
8.361651499e-24
-2.779415516e-22
-2.735504967e-22
3.607394581e-08
2.557266305e-09
3.464748177e-08
7.960494167e-09
3.408424714e-08
1.390052969e-08
2.591225542e-08
2.620382309e-08
-2.779753277e-08
7.009498258e-09
-9.289135567e-08
-1.229649846e-07
-8.142908696e-08
-2.712772077e-07
-1.511784404e-17
-2.078679319e-07
-2.650054099e-20
-1.825955026e-21
-2.33094236e-20
-8.727180739e-21
-1.907979289e-20
-1.355795498e-20
-1.483776726e-20
-1.582049771e-20
-1.10904461e-20
-1.62971117e-20
-8.010811329e-21
-1.568790558e-20
-5.5942859e-21
-1.450116939e-20
-3.758468616e-21
-1.306771115e-20
-2.397888563e-21
-1.158622725e-20
-1.410431421e-21
-1.016673356e-20
-7.079586105e-22
-8.863491937e-21
-2.189157433e-22
-7.697516786e-21
1.126828164e-22
-6.671057684e-21
3.296067926e-22
-5.776528082e-21
4.64000223e-22
-5.001809694e-21
5.397383433e-22
-4.333281446e-21
5.743944395e-22
-3.757461633e-21
5.808049024e-22
-3.261827479e-21
5.682792609e-22
-2.835161059e-21
5.435187913e-22
-2.467632831e-21
5.113056301e-22
-2.150748096e-21
4.750156608e-22
-1.877229014e-21
4.369982317e-22
-1.640873048e-21
3.988562682e-22
-1.436409857e-21
3.616523713e-22
-1.259367649e-21
3.260601448e-22
-1.105953751e-21
2.924750887e-22
-9.729507038e-22
2.610956828e-22
-8.576274042e-22
2.319825069e-22
-7.576639535e-22
2.051011838e-22
-6.710885717e-22
1.803534063e-22
-5.962248997e-22
1.575991892e-22
-5.316481265e-22
1.366726603e-22
-4.761485556e-22
1.173930979e-22
-4.287014113e-22
9.957247411e-23
-3.884418786e-22
8.302043539e-23
-3.546445345e-22
6.754740747e-23
-3.267064816e-22
5.296633419e-23
-3.041336215e-22
3.909342803e-23
-2.865296157e-22
2.574821362e-23
-2.735871761e-22
1.275307623e-23
-2.650814048e-22
-2.608649731e-22
4.169467803e-08
2.701235145e-09
4.123022753e-08
8.424944659e-09
4.101764836e-08
1.411310888e-08
4.428329172e-08
2.293817977e-08
1.791007687e-08
3.338271311e-08
-6.311786908e-08
-4.193703871e-08
-9.093271958e-08
-2.434623572e-07
6.844026214e-18
-2.988006517e-07
-3.431214033e-20
-4.681486605e-21
-2.814289518e-20
-1.489643093e-20
-2.134623472e-20
-2.035462616e-20
-1.531787715e-20
-2.184887173e-20
-1.048378062e-20
-2.113123017e-20
-6.825729643e-21
-1.934598392e-20
-4.161821867e-21
-1.716510988e-20
-2.27753545e-21
-1.495203557e-20
-9.786666717e-22
-1.288513924e-20
-1.072952216e-22
-1.103815335e-20
4.58005053e-22
-9.428845591e-21
8.075811297e-22
-8.047151176e-21
1.0072729e-21
-6.87081259e-21
1.104393211e-21
-5.873716234e-21
1.132595828e-21
-5.030084729e-21
1.115620733e-21
-4.316383217e-21
1.070084656e-21
-3.712006728e-21
1.00752045e-21
-3.19934861e-21
9.358499471e-22
-2.763579905e-21
8.604399031e-22
-2.392315996e-21
7.848557153e-22
-2.075260819e-21
7.113979708e-22
-1.803871719e-21
6.414837749e-22
-1.571062676e-21
5.759174337e-22
-1.370950547e-21
5.150823523e-22
-1.198642636e-21
4.590768437e-22
-1.050061176e-21
4.078099846e-22
-9.217994715e-22
3.610689896e-22
-8.110045552e-22
3.18566268e-22
-7.152817227e-22
2.799719778e-22
-6.326169421e-22
2.449362261e-22
-5.613138032e-22
2.131038824e-22
-4.999422578e-22
1.841241274e-22
-4.472969202e-22
1.576562567e-22
-4.023631302e-22
1.333728318e-22
-3.642893389e-22
1.10960958e-22
-3.323646674e-22
9.012224864e-23
-3.06000727e-22
7.057187592e-23
-2.847169784e-22
5.203699175e-23
-2.681290631e-22
3.425472131e-23
-2.559396666e-22
1.69698723e-23
-2.479315738e-22
-2.439626658e-22
4.747304916e-08
2.699049759e-09
4.777348713e-08
8.124506683e-09
4.782624359e-08
1.406035245e-08
5.18496854e-08
1.8914738e-08
5.197826131e-08
3.325413721e-08
-1.078091424e-08
2.082213687e-08
-8.389814004e-08
-1.703451314e-07
3.222790958e-17
-3.826987917e-07
-4.591438234e-20
-1.476329255e-20
-3.361226948e-20
-2.719854884e-20
-2.284923174e-20
-3.111767463e-20
-1.46059578e-20
-3.009216212e-20
-8.701897091e-21
-2.703531284e-20
-4.64667526e-21
-2.340123312e-20
-1.949641235e-21
-1.986217663e-20
-2.110089597e-22
-1.669070585e-20
8.682296494e-22
-1.396442108e-20
1.502062411e-21
-1.167203447e-20
1.839810477e-21
-9.766647049e-21
1.984050111e-21
-8.191449136e-21
2.004498033e-21
-6.891323662e-21
1.94814232e-21
-5.817428376e-21
1.846400318e-21
-4.928415162e-21
1.720085222e-21
-4.190145003e-21
1.582816895e-21
-3.574819592e-21
1.443351061e-21
-3.05996813e-21
1.307165323e-21
-2.627483537e-21
1.177537783e-21
-2.262781685e-21
1.056280237e-21
-1.954100203e-21
9.442364225e-22
-1.691928376e-21
8.416203618e-22
-1.468550461e-21
7.482457283e-22
-1.277682966e-21