/*--------------------------------*- C++ -*----------------------------------*\
  =========                 |
  \\      /  F ield         | OpenFOAM: The Open Source CFD Toolbox
   \\    /   O peration     | Website:  https://openfoam.org
    \\  /    A nd           | Version:  6
     \\/     M anipulation  |
\*---------------------------------------------------------------------------*/
FoamFile
{
    version     2.0;
    format      ascii;
    class       volScalarField;
    location    "0.08";
    object      pVap;
}
// * * * * * * * * * * * * * * * * * * * * * * * * * * * * * * * * * * * * * //

dimensions      [1 -1 -2 0 0 0 0];

internalField   nonuniform List<scalar> 
2500
(
55293.53336
55293.37061
55293.15793
55292.98
55292.85224
55292.75263
55292.66963
55292.6319
1.074812469
1.074511537
1.074360941
1.074294003
1.074267318
1.074257553
1.074254183
1.074253057
1.074252682
1.074252556
1.074252512
1.074252497
1.074252492
1.07425249
1.074252489
1.074252489
1.074252489
1.074252489
1.074252489
1.074252489
1.074252489
1.074252489
1.074252489
1.074252489
1.074252489
1.074252489
1.074252489
1.074252489
1.074252489
1.074252489
1.074252489
1.074252489
1.074252489
1.074252489
1.074252489
1.074252489
1.074252489
1.074252489
1.074252489
1.074252489
1.074252489
1.074252489
55294.54987
55294.34275
55293.99478
55293.6084
55293.28634
55293.0299
55292.80927
55292.61879
1.075914133
1.075032096
1.074583247
1.07438117
1.074299437
1.074268972
1.074258203
1.074254484
1.074253197
1.074252743
1.07425258
1.074252521
1.0742525
1.074252493
1.07425249
1.074252489
1.074252489
1.074252489
1.074252489
1.074252489
1.074252489
1.074252489
1.074252489
1.074252489
1.074252489
1.074252489
1.074252489
1.074252489
1.074252489
1.074252489
1.074252489
1.074252489
1.074252489
1.074252489
1.074252489
1.074252489
1.074252489
1.074252489
1.074252489
1.074252489
1.074252489
1.074252489
55295.11964
55294.93594
55294.58553
55294.13163
55293.67644
55293.28946
55292.94297
55292.61549
1.077030452
1.075576783
1.07482756
1.074483579
1.074340548
1.074285193
1.074264614
1.074257038
1.074254216
1.074253145
1.074252735
1.074252578
1.07425252
1.074252499
1.074252492
1.07425249
1.074252489
1.074252489
1.074252489
1.074252489
1.074252489
1.074252489
1.074252489
1.074252489
1.074252489
1.074252489
1.074252489
1.074252489
1.074252489
1.074252489
1.074252489
1.074252489
1.074252489
1.074252489
1.074252489
1.074252489
1.074252489
1.074252489
1.074252489
1.074252489
1.074252489
1.074252489
55295.48987
55295.33889
55295.02796
55294.57424
55294.04244
55293.54759
55293.08047
55292.61549
1.078243634
1.076196458
1.075127098
1.074622395
1.074403323
1.074313288
1.074277105
1.07426252
1.074256564
1.074254116
1.074253119
1.074252724
1.074252573
1.074252517
1.074252498
1.074252492
1.07425249
1.074252489
1.074252489
1.074252489
1.074252489
1.074252489
1.074252489
1.074252489
1.074252489
1.074252489
1.074252489
1.074252489
1.074252489
1.074252489
1.074252489
1.074252489
1.074252489
1.074252489
1.074252489
1.074252489
1.074252489
1.074252489
1.074252489
1.074252489
1.074252489
1.074252489
55295.76579
55295.64666
55295.38442
55294.96688
55294.40815
55293.81182
55293.22435
55292.62973
1.079689651
1.076992108
1.075551923
1.074843637
1.074516062
1.074369443
1.074304282
1.074275193
1.074262215
1.074256513
1.074254083
1.074253091
1.074252705
1.074252563
1.074252513
1.074252496
1.074252491
1.074252489
1.074252489
1.074252489
1.074252489
1.074252489
1.074252489
1.074252489
1.074252489
1.074252489
1.074252489
1.074252489
1.074252489
1.074252489
1.074252489
1.074252489
1.074252489
1.074252489
1.074252489
1.074252489
1.074252489
1.074252489
1.074252489
1.074252489
1.074252489
1.074252489
55295.99373
55295.90578
55295.69315
55295.32345
55294.77264
55294.08874
55293.37882
55292.64791
1.081633412
1.078175984
1.07625706
1.075251938
1.074744065
1.07449133
1.074366272
1.074305048
1.074275793
1.074262338
1.074256442
1.074253993
1.074253031
1.074252675
1.074252549
1.074252508
1.074252494
1.07425249
1.074252489
1.074252489
1.074252489
1.074252489
1.074252489
1.074252489
1.074252489
1.074252489
1.074252489
1.074252489
1.074252489
1.074252489
1.074252489
1.074252489
1.074252489
1.074252489
1.074252489
1.074252489
1.074252489
1.074252489
1.074252489
1.074252489
1.074252489
1.074252489
55296.19457
55296.13895
55295.97878
55295.66487
55295.14491
55294.40516
55293.55617
55292.66347
1.084645078
1.080214032
1.077590623
1.076084926
1.075236149
1.07476478
1.07450885
1.074374754
1.074307764
1.074276113
1.074262027
1.074256129
1.074253803
1.074252939
1.074252635
1.074252534
1.074252502
1.074252493
1.07425249
1.074252489
1.074252489
1.074252489
1.074252489
1.074252489
1.074252489
1.074252489
1.074252489
1.074252489
1.074252489
1.074252489
1.074252489
1.074252489
1.074252489
1.074252489
1.074252489
1.074252489
1.074252489
1.074252489
1.074252489
1.074252489
1.074252489
1.074252489
55296.37688
55296.35491
55296.25169
55296.00203
55295.5312
55294.77108
55293.76977
55292.68063
1.089963385
1.084133953
1.080324923
1.07786964
1.076321095
1.075378416
1.074832057
1.074533587
1.074380763
1.074307571
1.074274771
1.074260994
1.074255559
1.074253539
1.07425283
1.074252594
1.07425252
1.074252498
1.074252491
1.074252489
1.074252489
1.074252489
1.074252489
1.074252489
1.074252489
1.074252489
1.074252489
1.074252489
1.074252489
1.074252489
1.074252489
1.074252489
1.074252489
1.074252489
1.074252489
1.074252489
1.074252489
1.074252489
1.074252489
1.074252489
1.074252489
1.074252489
55296.54467
55296.55517
55296.51268
55296.33697
55295.93293
55295.18542
55294.04206
55292.70489
1.100307319
1.092180117
1.086132172
1.08173656
1.07869741
1.076729366
1.075544806
1.074883718
1.074541431
1.074376656
1.074302688
1.074271627
1.074259385
1.074254843
1.074253252
1.074252724
1.074252558
1.074252508
1.074252494
1.07425249
1.074252489
1.074252489
1.074252489
1.074252489
1.074252489
1.074252489
1.074252489
1.074252489
1.074252489
1.074252489
1.074252489
1.074252489
1.074252489
1.074252489
1.074252489
1.074252489
1.074252489
1.074252489
1.074252489
1.074252489
1.074252489
1.074252489
55296.70481
55296.74013
55296.75806
55296.66575
55296.34716
55295.64601
55294.39792
55292.74518
1.121506914
1.109131811
1.098522446
1.090021157
1.083786863
1.079615618
1.077062395
1.075626447
1.074880979
1.074522129
1.074361274
1.074293867
1.074267365
1.074257556
1.074254128
1.074252993
1.074252637
1.07425253
1.0742525
1.074252492
1.07425249
1.074252489
1.074252489
1.074252489
1.074252489
1.074252489
1.074252489
1.074252489
1.074252489
1.074252489
1.074252489
1.074252489
1.074252489
1.074252489
1.074252489
1.074252489
1.074252489
1.074252489
1.074252489
1.074252489
1.074252489
1.074252489
55296.87231
55296.91572
55296.98516
55296.98243
55296.76817
55296.14695
55294.85418
55292.83093
1.16590895
1.144997863
1.124670491
1.107377734
1.094360303
1.085564304
1.08016829
1.077137302
1.075568065
1.07481515
1.074478803
1.074338324
1.074283265
1.074262945
1.074255863
1.074253525
1.074252792
1.074252574
1.074252512
1.074252495
1.07425249
1.074252489
1.074252489
1.074252489
1.074252489
1.074252489
1.074252489
1.074252489
1.074252489
1.074252489
1.074252489
1.074252489
1.074252489
1.074252489
1.074252489
1.074252489
1.074252489
1.074252489
1.074252489
1.074252489
1.074252489
1.074252489
55297.05532
55297.10034
55297.19708
55297.28353
55297.19171
55296.68758
55295.40958
55294.54627
1.260673063
1.220889348
1.179056518
1.142821119
1.115602682
1.097357535
1.086261673
1.080077233
1.076896334
1.075378588
1.074703778
1.074423094
1.074313479
1.074273156
1.074259142
1.074254528
1.074253085
1.074252655
1.074252533
1.0742525
1.074252492
1.074252489
1.074252489
1.074252489
1.074252489
1.074252489
1.074252489
1.074252489
1.074252489
1.074252489
1.074252489
1.074252489
1.074252489
1.074252489
1.074252489
1.074252489
1.074252489
1.074252489
1.074252489
1.074252489
1.074252489
1.074252489
55297.25513
55297.30311
55297.40923
55297.57105
55297.61748
55297.27388
55296.08336
55295.63307
1.469210299
1.382989895
1.291215693
1.213580404
1.15690185
1.11982993
1.097703918
1.08553945
1.079344757
1.076410868
1.075113936
1.074577007
1.074368147
1.074291575
1.074265041
1.074256327
1.074253609
1.074252801
1.074252572
1.07425251
1.074252494
1.07425249
1.074252489
1.074252489
1.074252489
1.074252489
1.074252489
1.074252489
1.074252489
1.074252489
1.074252489
1.074252489
1.074252489
1.074252489
1.074252489
1.074252489
1.074252489
1.074252489
1.074252489
1.074252489
1.074252489
1.074252489
55297.47287
55297.52451
55297.64666
55297.84904
55298.0464
55297.91292
55296.91009
55293.87963
1.956868876
1.740767416
1.524222449
1.352972533
1.234947216
1.161042073
1.118259313
1.095215845
1.08364055
1.078209458
1.075824788
1.074842621
1.074462152
1.07432315
1.074275126
1.074259396
1.0742545
1.074253049
1.074252638
1.074252527
1.074252498
1.074252491
1.074252489
1.074252489
1.074252489
1.074252489
1.074252489
1.074252489
1.074252489
1.074252489
1.074252489
1.074252489
1.074252489
1.074252489
1.074252489
1.074252489
1.074252489
1.074252489
1.074252489
1.074252489
1.074252489
1.074252489
55297.70742
55297.76285
55297.89638
55298.13587
55298.47439
55298.60406
55297.91833
55294.78863
3.230927579
2.588373918
2.024732389
1.628264767
1.379497619
1.23402243
1.153602193
1.111543676
1.090802347
1.081183895
1.076993594
1.075277419
1.074615482
1.074374495
1.074291483
1.074264362
1.07425594
1.074253448
1.074252744
1.074252554
1.074252505
1.074252493
1.07425249
1.074252489
1.074252489
1.074252489
1.074252489
1.074252489
1.074252489
1.074252489
1.074252489
1.074252489
1.074252489
1.074252489
1.074252489
1.074252489
1.074252489
1.074252489
1.074252489
1.074252489
1.074252489
1.074252489
55297.95815
55298.01797
55298.16562
55298.43858
55298.87745
55299.32379
55299.10054
55296.32176
7.167807276
4.841783081
3.172830814
2.184797003
1.644936639
1.359454709
1.21183751
1.1377665
1.102128347
1.085842982
1.078812758
1.075951037
1.074852176
1.074453521
1.074316595
1.07427197
1.074258141
1.074254057
1.074252905
1.074252595
1.074252515
1.074252495
1.07425249
1.074252489
1.074252489
1.074252489
1.074252489
1.074252489
1.074252489
1.074252489
1.074252489
1.074252489
1.074252489
1.074252489
1.074252489
1.074252489
1.074252489
1.074252489
1.074252489
1.074252489
1.074252489
1.074252489
55298.22371
55298.28895
55298.45418
55298.76337
55299.28274
55300.01707
55300.39454
55298.45495
21.88306162
11.7417081
6.057491003
3.359352126
2.134099695
1.569892221
1.303931884
1.177816937
1.119085863
1.09273861
1.08148609
1.07693618
1.075197091
1.074568348
1.074352994
1.074282974
1.074261318
1.074254935
1.074253138
1.074252654
1.074252529
1.074252498
1.074252491
1.074252489
1.074252489
1.074252489
1.074252489
1.074252489
1.074252489
1.074252489
1.074252489
1.074252489
1.074252489
1.074252489
1.074252489
1.074252489
1.074252489
1.074252489
1.074252489
1.074252489
1.074252489
1.074252489
55298.50098
55298.57389
55298.76188
55299.11926
55299.71552
55300.63992
55301.69301
55300.97258
84.1059107
35.3894105
13.97165291
5.965869627
3.045430222
1.915856457
1.443791602
1.235901768
1.143061879
1.102353178
1.085183732
1.078291909
1.075670061
1.074725371
1.074402655
1.074297958
1.074265638
1.074256127
1.074253453
1.074252734
1.074252549
1.074252503
1.074252492
1.07425249
1.074252489
1.074252489
1.074252489
1.074252489
1.074252489
1.074252489
1.074252489
1.074252489
1.074252489
1.074252489
1.074252489
1.074252489
1.074252489
1.074252489
1.074252489
1.074252489
1.074252489
1.074252489
55298.78404
55298.86744
55299.08489
55299.50604
55300.21305
55301.32204
55302.86802
55303.50035
337.7624968
117.6310712
36.55626775
11.94049006
4.753905798
2.472284625
1.647311717
1.315641866
1.174955207
1.114931969
1.08997804
1.080040425
1.076277915
1.074926645
1.074466178
1.07431709
1.074271145
1.074257644
1.074253854
1.074252836
1.074252573
1.074252509
1.074252493
1.07425249
1.074252489
1.074252489
1.074252489
1.074252489
1.074252489
1.074252489
1.074252489
1.074252489
1.074252489
1.074252489
1.074252489
1.074252489
1.074252489
1.074252489
1.074252489
1.074252489
1.074252489
1.074252489
55299.06393
55299.16022
55299.41316
55299.90856
55300.74963
55302.04249
55303.89686
55305.70931
1175.113689
371.7445842
97.99178853
25.43190996
7.905532039
3.338089079
1.929025182
1.418623856
1.214636792
1.130285984
1.095772514
1.082142144
1.077006052
1.075167158
1.074541938
1.074339871
1.074277693
1.074259446
1.074254329
1.074252956
1.074252603
1.074252516
1.074252495
1.07425249
1.074252489
1.074252489
1.074252489
1.074252489
1.074252489
1.074252489
1.074252489
1.074252489
1.074252489
1.074252489
1.074252489
1.074252489
1.074252489
1.074252489
1.074252489
1.074252489
1.074252489
1.074252489
55299.32918
55299.44006
55299.73321
55300.31177
55301.30526
55302.82738
55304.95263
55307.4321
3186.944475
996.6358446
242.7638936
53.48137552
13.39898012
4.611476519
2.294523859
1.54236965
1.260383583
1.147620241
1.102246255
1.084477315
1.077812426
1.075432921
1.074625509
1.074364965
1.074284898
1.074261426
1.074254851
1.074253088
1.074252635
1.074252523
1.074252497
1.07425249
1.074252489
1.074252489
1.074252489
1.074252489
1.074252489
1.074252489
1.074252489
1.074252489
1.074252489
1.074252489
1.074252489
1.074252489
1.074252489
1.074252489
1.074252489
1.074252489
1.074252489
1.074252489
55299.56642
55299.69253
55300.02753
55300.69215
55301.83709
55303.58514
55305.89333
55308.68507
6626.360622
2151.78713
516.9028544
103.4745621
21.97215357
6.318738059
2.728173066
1.678188856
1.308498932
1.165466441
1.108842011
1.086843927
1.078627213
1.075700931
1.074709663
1.074390205
1.074292137
1.074263414
1.074255374
1.07425322
1.074252667
1.074252531
1.074252498
1.074252491
1.074252489
1.074252489
1.074252489
1.074252489
1.074252489
1.074252489
1.074252489
1.074252489
1.074252489
1.074252489
1.074252489
1.074252489
1.074252489
1.074252489
1.074252489
1.074252489
1.074252489
1.074252489
55299.76151
55299.90199
55300.27621
55301.02116
55302.30193
55304.23909
55306.6934
55309.53943
10899.83867
3728.978966
913.6347481
174.9628242
33.21574639
8.301842423
3.180670198
1.810138187
1.353420751
1.181799404
1.114820928
1.088979093
1.079360426
1.075941717
1.07478518
1.074412832
1.074298621
1.074265194
1.074255843
1.074253339
1.074252696
1.074252537
1.0742525
1.074252491
1.074252489
1.074252489
1.074252489
1.074252489
1.074252489
1.074252489
1.074252489
1.074252489
1.074252489
1.074252489
1.074252489
1.074252489
1.074252489
1.074252489
1.074252489
1.074252489
1.074252489
1.074252489
55299.90106
55300.05322
55300.4593
55301.27002
55302.66196
55304.74364
55307.31514
55310.06757
14782.62182
5284.894316
1330.067641
250.9783883
44.60671814
10.14613149
3.568127261
1.916816297
1.388576705
1.194374542
1.119388552
1.090604131
1.07991735
1.076124386
1.07484242
1.074429972
1.07430353
1.07426654
1.074256197
1.074253428
1.074252718
1.074252542
1.074252501
1.074252491
1.074252489
1.074252489
1.074252489
1.074252489
1.074252489
1.074252489
1.074252489
1.074252489
1.074252489
1.074252489
1.074252489
1.074252489
1.074252489
1.074252489
1.074252489
1.074252489
1.074252489
1.074252489
55299.97413
55300.1331
55300.55781
55301.40748
55302.86671
55305.03046
55307.69869
55310.32241
17074.29531
6253.60838
1601.150068
301.2952278
51.97909715
11.28165373
3.794663106
1.976913794
1.407963745
1.201235067
1.121867811
1.091484038
1.080218525
1.076223095
1.074873334
1.074439224
1.074306179
1.074267267
1.074256388
1.074253476
1.074252729
1.074252545
1.074252502
1.074252492
1.074252489
1.074252489
1.074252489
1.074252489
1.074252489
1.074252489
1.074252489
1.074252489
1.074252489
1.074252489
1.074252489
1.074252489
1.074252489
1.074252489
1.074252489
1.074252489
1.074252489
1.074252489
55299.97413
55300.1331
55300.55781
55301.40748
55302.86671
55305.03046
55307.69869
55310.32241
17074.29546
6253.608316
1601.150052
301.2952251
51.9790968
11.28165368
3.794663098
1.976913792
1.407963745
1.201235066
1.121867811
1.091484038
1.080218525
1.076223095
1.074873334
1.074439224
1.074306179
1.074267267
1.074256388
1.074253476
1.074252729
1.074252545
1.074252502
1.074252492
1.074252489
1.074252489
1.074252489
1.074252489
1.074252489
1.074252489
1.074252489
1.074252489
1.074252489
1.074252489
1.074252489
1.074252489
1.074252489
1.074252489
1.074252489
1.074252489
1.074252489
1.074252489
55299.90106
55300.05322
55300.4593
55301.27002
55302.66196
55304.74364
55307.31514
55310.06757
14782.62249
5284.894156
1330.067603
250.9783824
44.60671739
10.14613139
3.568127243
1.916816292
1.388576703
1.194374541
1.119388552
1.090604131
1.07991735
1.076124386
1.07484242
1.074429972
1.07430353
1.07426654
1.074256197
1.074253428
1.074252718
1.074252542
1.074252501
1.074252491
1.074252489
1.074252489
1.074252489
1.074252489
1.074252489
1.074252489
1.074252489
1.074252489
1.074252489
1.074252489
1.074252489
1.074252489
1.074252489
1.074252489
1.074252489
1.074252489
1.074252489
1.074252489
55299.76151
55299.90199
55300.27621
55301.02116
55302.30193
55304.23909
55306.6934
55309.53943
10899.83959
3728.97881
913.6347161
174.9628195
33.21574581
8.301842344
3.180670184
1.810138183
1.35342075
1.181799404
1.114820928
1.088979093
1.079360426
1.075941717
1.07478518
1.074412832
1.074298621
1.074265194
1.074255843
1.074253339
1.074252696
1.074252537
1.0742525
1.074252491
1.074252489
1.074252489
1.074252489
1.074252489
1.074252489
1.074252489
1.074252489
1.074252489
1.074252489
1.074252489
1.074252489
1.074252489
1.074252489
1.074252489
1.074252489
1.074252489
1.074252489
1.074252489
55299.56642
55299.69253
55300.02753
55300.69215
55301.83709
55303.58514
55305.89333
55308.68508
6626.361132
2151.787071
516.9028453
103.4745611
21.97215348
6.318738051
2.728173065
1.678188856
1.308498932
1.165466441
1.108842011
1.086843927
1.078627213
1.075700931
1.074709663
1.074390205
1.074292137
1.074263414
1.074255374
1.07425322
1.074252667
1.074252531
1.074252498
1.074252491
1.074252489
1.074252489
1.074252489
1.074252489
1.074252489
1.074252489
1.074252489
1.074252489
1.074252489
1.074252489
1.074252489
1.074252489
1.074252489
1.074252489
1.074252489
1.074252489
1.074252489
1.074252489
55299.32918
55299.44006
55299.73321
55300.31177
55301.30526
55302.82738
55304.95263
55307.43629
3186.944383
996.6358747
242.7639011
53.48137695
13.39898038
4.611476575
2.294523873
1.542369655
1.260383585
1.147620242
1.102246256
1.084477315
1.077812426
1.075432921
1.074625509
1.074364965
1.074284898
1.074261426
1.074254851
1.074253088
1.074252635
1.074252523
1.074252497
1.07425249
1.074252489
1.074252489
1.074252489
1.074252489
1.074252489
1.074252489
1.074252489
1.074252489
1.074252489
1.074252489
1.074252489
1.074252489
1.074252489
1.074252489
1.074252489
1.074252489
1.074252489
1.074252489
55299.06393
55299.16022
55299.41316
55299.90856
55300.74962
55302.04249
55303.89686
55305.7089
1175.113452
371.7446303
97.99179796
25.43191171
7.905532384
3.33808916
1.929025206
1.418623864
1.214636795
1.130285985
1.095772514
1.082142144
1.077006052
1.075167158
1.074541938
1.074339871
1.074277693
1.074259446
1.074254329
1.074252956
1.074252603
1.074252516
1.074252495
1.07425249
1.074252489
1.074252489
1.074252489
1.074252489
1.074252489
1.074252489
1.074252489
1.074252489
1.074252489
1.074252489
1.074252489
1.074252489
1.074252489
1.074252489
1.074252489
1.074252489
1.074252489
1.074252489
55298.78404
55298.86744
55299.08489
55299.50604
55300.21305
55301.32204
55302.86801
55303.50017
337.7624696
117.6310936
36.55627289
11.94049119
4.753906068
2.4722847
1.647311742
1.315641875
1.17495521
1.114931971
1.08997804
1.080040425
1.076277915
1.074926645
1.074466178
1.07431709
1.074271145
1.074257644
1.074253854
1.074252836
1.074252573
1.074252509
1.074252493
1.07425249
1.074252489
1.074252489
1.074252489
1.074252489
1.074252489
1.074252489
1.074252489
1.074252489
1.074252489
1.074252489
1.074252489
1.074252489
1.074252489
1.074252489
1.074252489
1.074252489
1.074252489
1.074252489
55298.50098
55298.57389
55298.76188
55299.11926
55299.71552
55300.63992
55301.693
55300.97037
84.10592402
35.38941736
13.97165491
5.965870186
3.04543039
1.915856512
1.443791622
1.235901776
1.143061882
1.10235318
1.085183732
1.078291909
1.075670061
1.074725371
1.074402655
1.074297958
1.074265638
1.074256127
1.074253453
1.074252734
1.074252549
1.074252503
1.074252492
1.07425249
1.074252489
1.074252489
1.074252489
1.074252489
1.074252489
1.074252489
1.074252489
1.074252489
1.074252489
1.074252489
1.074252489
1.074252489
1.074252489
1.074252489
1.074252489
1.074252489
1.074252489
1.074252489
55298.22371
55298.28894
55298.45418
55298.76337
55299.28274
55300.01707
55300.39454
55298.45112
21.88306528
11.74170988
6.057491685
3.359352372
2.134099786
1.569892256
1.303931898
1.177816943
1.119085865
1.092738611
1.08148609
1.07693618
1.075197091
1.074568348
1.074352994
1.074282974
1.074261318
1.074254935
1.074253138
1.074252654
1.074252529
1.074252498
1.074252491
1.074252489
1.074252489
1.074252489
1.074252489
1.074252489
1.074252489
1.074252489
1.074252489
1.074252489
1.074252489
1.074252489
1.074252489
1.074252489
1.074252489
1.074252489
1.074252489
1.074252489
1.074252489
1.074252489
55297.95815
55298.01797
55298.16562
55298.43858
55298.87745
55299.32379
55299.10054
55296.31939
7.167808013
4.841783546
3.172831044
2.184797107
1.644936685
1.359454729
1.211837518
1.137766504
1.102128348
1.085842983
1.078812759
1.075951037
1.074852176
1.074453521
1.074316595
1.07427197
1.074258141
1.074254057
1.074252905
1.074252595
1.074252515
1.074252495
1.07425249
1.074252489
1.074252489
1.074252489
1.074252489
1.074252489
1.074252489
1.074252489
1.074252489
1.074252489
1.074252489
1.074252489
1.074252489
1.074252489
1.074252489
1.074252489
1.074252489
1.074252489
1.074252489
1.074252489
55297.70742
55297.76284
55297.89637
55298.13586
55298.47439
55298.60405
55297.91833
55294.78681
3.230927766
2.588374047
2.024732468
1.628264809
1.37949764
1.23402244
1.153602198
1.111543678
1.090802348
1.081183895
1.076993594
1.075277419
1.074615482
1.074374495
1.074291483
1.074264362
1.07425594
1.074253448
1.074252744
1.074252554
1.074252505
1.074252493
1.07425249
1.074252489
1.074252489
1.074252489
1.074252489
1.074252489
1.074252489
1.074252489
1.074252489
1.074252489
1.074252489
1.074252489
1.074252489
1.074252489
1.074252489
1.074252489
1.074252489
1.074252489
1.074252489
1.074252489
55297.47287
55297.52451
55297.64666
55297.84904
55298.0464
55297.91292
55296.91009
55293.8766
1.95686893
1.740767452
1.524222474
1.352972549
1.234947225
1.161042078
1.118259316
1.095215846
1.08364055
1.078209459
1.075824788
1.074842621
1.074462152
1.07432315
1.074275126
1.074259396
1.0742545
1.074253049
1.074252638
1.074252527
1.074252498
1.074252491
1.074252489
1.074252489
1.074252489
1.074252489
1.074252489
1.074252489
1.074252489
1.074252489
1.074252489
1.074252489
1.074252489
1.074252489
1.074252489
1.074252489
1.074252489
1.074252489
1.074252489
1.074252489
1.074252489
1.074252489
55297.25513
55297.30311
55297.40923
55297.57105
55297.61748
55297.27388
55296.08336
55295.531
1.469210329
1.382989903
1.291215699
1.213580409
1.156901853
1.119829932
1.097703919
1.085539451
1.079344757
1.076410868
1.075113936
1.074577007
1.074368147
1.074291575
1.074265041
1.074256327
1.074253609
1.074252801
1.074252572
1.07425251
1.074252494
1.07425249
1.074252489
1.074252489
1.074252489
1.074252489
1.074252489
1.074252489
1.074252489
1.074252489
1.074252489
1.074252489
1.074252489
1.074252489
1.074252489
1.074252489
1.074252489
1.074252489
1.074252489
1.074252489
1.074252489
1.074252489
55297.05532
55297.10034
55297.19708
55297.28353
55297.19171
55296.68759
55295.40959
55294.48064
1.260673091
1.220889344
1.179056517
1.142821119
1.115602682
1.097357536
1.086261673
1.080077233
1.076896334
1.075378588
1.074703778
1.074423094
1.074313479
1.074273156
1.074259142
1.074254528
1.074253085
1.074252655
1.074252533
1.0742525
1.074252492
1.074252489
1.074252489
1.074252489
1.074252489
1.074252489
1.074252489
1.074252489
1.074252489
1.074252489
1.074252489
1.074252489
1.074252489
1.074252489
1.074252489
1.074252489
1.074252489
1.074252489
1.074252489
1.074252489
1.074252489
1.074252489
55296.87231
55296.91572
55296.98516
55296.98243
55296.76817
55296.14695
55294.85419
55292.85466
1.165908967
1.144997856
1.124670487
1.107377732
1.094360303
1.085564304
1.08016829
1.077137303
1.075568065
1.07481515
1.074478803
1.074338324
1.074283265
1.074262945
1.074255863
1.074253525
1.074252792
1.074252574
1.074252512
1.074252495
1.07425249
1.074252489
1.074252489
1.074252489
1.074252489
1.074252489
1.074252489
1.074252489
1.074252489
1.074252489
1.074252489
1.074252489
1.074252489
1.074252489
1.074252489
1.074252489
1.074252489
1.074252489
1.074252489
1.074252489
1.074252489
1.074252489
55296.70481
55296.74013
55296.75806
55296.66575
55296.34716
55295.64601
55294.39791
55292.75668
1.12150691
1.109131804
1.098522442
1.090021155
1.083786863
1.079615617
1.077062395
1.075626446
1.074880979
1.074522129
1.074361274
1.074293867
1.074267365
1.074257556
1.074254128
1.074252993
1.074252637
1.07425253
1.0742525
1.074252492
1.07425249
1.074252489
1.074252489
1.074252489
1.074252489
1.074252489
1.074252489
1.074252489
1.074252489
1.074252489
1.074252489
1.074252489
1.074252489
1.074252489
1.074252489
1.074252489
1.074252489
1.074252489
1.074252489
1.074252489
1.074252489
1.074252489
55296.54467
55296.55517
55296.51268
55296.33697
55295.93293
55295.18542
55294.04205
55292.70747
1.100307309
1.092180111
1.086132169
1.081736558
1.07869741
1.076729365
1.075544806
1.074883718
1.074541431
1.074376656
1.074302688
1.074271627
1.074259385
1.074254843
1.074253252
1.074252724
1.074252558
1.074252508
1.074252494
1.07425249
1.074252489
1.074252489
1.074252489
1.074252489
1.074252489
1.074252489
1.074252489
1.074252489
1.074252489
1.074252489
1.074252489
1.074252489
1.074252489
1.074252489
1.074252489
1.074252489
1.074252489
1.074252489
1.074252489
1.074252489
1.074252489
1.074252489
55296.37688
55296.35491
55296.25169
55296.00203
55295.53119
55294.77108
55293.76977
55292.67579
1.08996337
1.084133948
1.08032492
1.077869639
1.076321095
1.075378416
1.074832057
1.074533587
1.074380763
1.074307571
1.074274771
1.074260994
1.074255559
1.074253539
1.07425283
1.074252594
1.07425252
1.074252498
1.074252491
1.074252489
1.074252489
1.074252489
1.074252489
1.074252489
1.074252489
1.074252489
1.074252489
1.074252489
1.074252489
1.074252489
1.074252489
1.074252489
1.074252489
1.074252489
1.074252489
1.074252489
1.074252489
1.074252489
1.074252489
1.074252489
1.074252489
1.074252489
55296.19457
55296.13895
55295.97878
55295.66487
55295.14491
55294.40515
55293.55617
55292.6545
1.08464506
1.080214028
1.077590621
1.076084925
1.075236149
1.074764779
1.07450885
1.074374754
1.074307764
1.074276113
1.074262027
1.074256129
1.074253803
1.074252939
1.074252635
1.074252534
1.074252502
1.074252493
1.07425249
1.074252489
1.074252489
1.074252489
1.074252489
1.074252489
1.074252489
1.074252489
1.074252489
1.074252489
1.074252489
1.074252489
1.074252489
1.074252489
1.074252489
1.074252489
1.074252489
1.074252489
1.074252489
1.074252489
1.074252489
1.074252489
1.074252489
1.074252489
55295.99373
55295.90578
55295.69315
55295.32345
55294.77264
55294.08874
55293.37882
55292.6389
1.081633395
1.078175981
1.076257058
1.075251937
1.074744065
1.07449133
1.074366272
1.074305048
1.074275793
1.074262338
1.074256442
1.074253993
1.074253031
1.074252675
1.074252549
1.074252508
1.074252494
1.07425249
1.074252489
1.074252489
1.074252489
1.074252489
1.074252489
1.074252489
1.074252489
1.074252489
1.074252489
1.074252489
1.074252489
1.074252489
1.074252489
1.074252489
1.074252489
1.074252489
1.074252489
1.074252489
1.074252489
1.074252489
1.074252489
1.074252489
1.074252489
1.074252489
55295.76579
55295.64666
55295.38442
55294.96688
55294.40815
55293.81182
55293.22435
55292.62847
1.079689644
1.076992106
1.075551922
1.074843636
1.074516061
1.074369443
1.074304282
1.074275193
1.074262215
1.074256513
1.074254083
1.074253091
1.074252705
1.074252563
1.074252513
1.074252496
1.074252491
1.074252489
1.074252489
1.074252489
1.074252489
1.074252489
1.074252489
1.074252489
1.074252489
1.074252489
1.074252489
1.074252489
1.074252489
1.074252489
1.074252489
1.074252489
1.074252489
1.074252489
1.074252489
1.074252489
1.074252489
1.074252489
1.074252489
1.074252489
1.074252489
1.074252489
55295.48987
55295.33889
55295.02796
55294.57424
55294.04244
55293.54759
55293.08047
55292.62388
1.078243642
1.076196456
1.075127097
1.074622394
1.074403323
1.074313288
1.074277105
1.07426252
1.074256564
1.074254116
1.074253119
1.074252724
1.074252573
1.074252517
1.074252498
1.074252492
1.07425249
1.074252489
1.074252489
1.074252489
1.074252489
1.074252489
1.074252489
1.074252489
1.074252489
1.074252489
1.074252489
1.074252489
1.074252489
1.074252489
1.074252489
1.074252489
1.074252489
1.074252489
1.074252489
1.074252489
1.074252489
1.074252489
1.074252489
1.074252489
1.074252489
1.074252489
55295.11964
55294.93593
55294.58553
55294.13163
55293.67644
55293.28946
55292.94297
55292.61915
1.077030454
1.075576782
1.07482756
1.074483579
1.074340548
1.074285193
1.074264614
1.074257038
1.074254216
1.074253145
1.074252735
1.074252578
1.07425252
1.074252499
1.074252492
1.07425249
1.074252489
1.074252489
1.074252489
1.074252489
1.074252489
1.074252489
1.074252489
1.074252489
1.074252489
1.074252489
1.074252489
1.074252489
1.074252489
1.074252489
1.074252489
1.074252489
1.074252489
1.074252489
1.074252489
1.074252489
1.074252489
1.074252489
1.074252489
1.074252489
1.074252489
1.074252489
55294.54987
55294.34274
55293.99477
55293.60839
55293.28634
55293.0299
55292.80927
55292.61173
1.075914123
1.075032095
1.074583247
1.07438117
1.074299437
1.074268972
1.074258203
1.074254484
1.074253197
1.074252743
1.07425258
1.074252521
1.0742525
1.074252493
1.07425249
1.074252489
1.074252489
1.074252489
1.074252489
1.074252489
1.074252489
1.074252489
1.074252489
1.074252489
1.074252489
1.074252489
1.074252489
1.074252489
1.074252489
1.074252489
1.074252489
1.074252489
1.074252489
1.074252489
1.074252489
1.074252489
1.074252489
1.074252489
1.074252489
1.074252489
1.074252489
1.074252489
55293.53335
55293.3706
55293.15793
55292.98
55292.85224
55292.75263