/*--------------------------------*- C++ -*----------------------------------*\
  =========                 |
  \\      /  F ield         | OpenFOAM: The Open Source CFD Toolbox
   \\    /   O peration     | Website:  https://openfoam.org
    \\  /    A nd           | Version:  6
     \\/     M anipulation  |
\*---------------------------------------------------------------------------*/
FoamFile
{
    version     2.0;
    format      ascii;
    class       volScalarField;
    location    "0.08";
    object      Temperature;
}
// * * * * * * * * * * * * * * * * * * * * * * * * * * * * * * * * * * * * * //

dimensions      [0 0 0 1 0 0 0];

internalField   nonuniform List<scalar> 
2500
(
313.3250568
310.9381089
307.8742354
305.3576295
303.5758692
302.2009849
301.0648155
300.0383315
300.0130095
300.0060217
300.0025225
300.0009661
300.0003453
300.000118
300.0000395
300.0000132
300.0000045
300.0000016
300.0000005
300.0000002
300.0000001
300
300
300
300
300
300
300
300
300
300
300
300
300
300
300
300
300
300
300
300
300
300
300
300
300
300
300
300
300
329.0924495
325.7497694
320.2859775
314.4321534
309.7146708
306.0577871
302.9804131
300.1093844
300.0385891
300.0181187
300.0076923
300.0029945
300.0010931
300.000384
300.0001331
300.0000465
300.0000165
300.0000059
300.0000021
300.0000008
300.0000003
300.0000001
300
300
300
300
300
300
300
300
300
300
300
300
300
300
300
300
300
300
300
300
300
300
300
300
300
300
300
300
338.6404738
335.4977614
329.6650131
322.4074356
315.4449766
309.7579882
304.8375194
300.1794981
300.0644877
300.0307713
300.0133725
300.0053771
300.0020501
300.0007617
300.0002825
300.000106
300.0000402
300.0000153
300.0000057
300.0000021
300.0000007
300.0000002
300.0000001
300
300
300
300
300
300
300
300
300
300
300
300
300
300
300
300
300
300
300
300
300
300
300
300
300
300
300
345.1458839
342.4581334
337.0564029
329.4763442
321.0173554
313.5276641
306.771382
300.2536095
300.0926096
300.0451597
300.0203349
300.008606
300.003511
300.0014158
300.0005734
300.0002337
300.000095
300.0000379
300.0000147
300.0000055
300.000002
300.0000007
300.0000002
300.0000001
300
300
300
300
300
300
300
300
300
300
300
300
300
300
300
300
300
300
300
300
300
300
300
300
300
300
350.1593558
347.9728958
343.2589095
336.0143519
326.7874695
317.4838062
308.8217942
300.3358257
300.1260953
300.0636245
300.0302066
300.0137511
300.0061341
300.0027228
300.0012061
300.0005288
300.0002266
300.0000938
300.0000372
300.000014
300.0000051
300.0000017
300.0000006
300.0000002
300.0000001
300
300
300
300
300
300
300
300
300
300
300
300
300
300
300
300
300
300
300
300
300
300
300
300
300
354.413538
352.7571304
348.8204805
342.1837449
332.752175
321.740692
311.0549259
300.4338411
300.1710513
300.0910786
300.0465844
300.0232432
300.0114377
300.0055592
300.0026491
300.001224
300.0005428
300.0002295
300.0000921
300.0000351
300.0000127
300.0000043
300.0000014
300.0000004
300.0000001
300
300
300
300
300
300
300
300
300
300
300
300
300
300
300
300
300
300
300
300
300
300
300
300
300
358.2488401
357.176696
354.1296048
348.3079897
339.0749783
326.7493491
313.6597855
300.5651275
300.2405792
300.1382825
300.0775324
300.0425972
300.0228794
300.0119204
300.0059671
300.0028466
300.0012873
300.0005503
300.0002222
300.0000848
300.0000306
300.0000105
300.0000034
300.0000011
300.0000003
300.0000001
300
300
300
300
300
300
300
300
300
300
300
300
300
300
300
300
300
300
300
300
300
300
300
300
361.8025029
361.3695193
359.3543029
354.5729054
345.892364
332.7369934
316.8552123
300.7630797
300.362972
300.2288619
300.1408824
300.084017
300.0480869
300.0261881
300.0134859
300.006543
300.0029867
300.0012828
300.0005191
300.0001982
300.0000716
300.0000245
300.000008
300.0000025
300.0000007
300.0000002
300.0000001
300
300
300
300
300
300
300
300
300
300
300
300
300
300
300
300
300
300
300
300
300
300
300
365.135262
365.3452679
364.4952887
361.0209877
353.2753233
339.7833316
321.022839
301.0976166
300.5995938
300.4139217
300.2749714
300.1735535
300.1032163
300.0575708
300.0300577
300.0146886
300.0067261
300.0028913
300.0011693
300.0004459
300.0001607
300.0000549
300.0000178
300.0000055
300.0000016
300.0000005
300.0000001
300
300
300
300
300
300
300
300
300
300
300
300
300
300
300
300
300
300
300
300
300
300
300
368.3738001
369.0949961
369.4630065
367.5804854
361.2226074
347.9708132
326.6343994
301.7103441
301.0787591
300.8000755
300.5590412
300.3644593
300.2209332
300.1244994
300.0653068
300.0319579
300.0146262
300.0062775
300.0025334
300.0009639
300.0003466
300.0001181
300.0000382
300.0000118
300.0000035
300.000001
300.0000003
300.0000001
300
300
300
300
300
300
300
300
300
300
300
300
300
300
300
300
300
300
300
300
300
300
371.8245811
372.7273582
374.1826442
374.1269583
369.6739425
357.3349469
334.12215
302.8544711
302.0582785
301.6010526
301.1498026
300.760475
300.4639949
300.2619547
300.1373092
300.0670516
300.0306037
300.0130961
300.0052696
300.0019993
300.0007171
300.0002437
300.0000787
300.0000242
300.0000071
300.000002
300.0000005
300.0000001
300
300
300
300
300
300
300
300
300
300
300
300
300
300
300
300
300
300
300
300
300
300
375.6694011
376.6259807
378.69839
380.5721146
378.5849276
368.0242644
343.7132653
305.0575158
304.0488653
303.229091
302.3426402
301.5532661
300.9463965
300.5325793
300.2780514
300.1352135
300.0614634
300.0262012
300.0105058
300.0039731
300.0014208
300.0004816
300.0001551
300.0000475
300.0000139
300.0000039
300.000001
300.0000003
300.0000001
300
300
300
300
300
300
300
300
300
300
300
300
300
300
300
300
300
300
300
300
300
379.959318
381.0030742
383.3316392
386.9389928
387.9879139
380.3642542
356.1152883
309.3230291
308.0247731
306.4420284
304.6644029
303.0764469
301.862672
301.0415638
300.5405398
300.2614297
300.1182578
300.0501936
300.0200485
300.0075562
300.002694
300.0009107
300.0002926
300.0000895
300.0000261
300.0000073
300.0000019
300.0000005
300.0000001
300
300
300
300
300
300
300
300
300
300
300
300
300
300
300
300
300
300
300
300
300
384.7465478
385.8990647
388.6526593
393.3026075
397.9463679
394.79371
372.6126672
317.5260549
315.7547165
312.5531324
308.9959786
305.8723793
303.5221065
301.9531822
301.0063619
300.4837056
300.2176344
300.0919462
300.0365782
300.0137379
300.0048829
300.0016462
300.0005276
300.000161
300.0000469
300.0000131
300.0000035
300.0000009
300.0000002
300.0000001
300
300
300
300
300
300
300
300
300
300
300
300
300
300
300
300
300
300
300
300
390.0397462
391.3113866
394.4092107
400.091188
408.4064594
411.6845624
394.9237702
332.9297921
330.2515759
323.681286
316.7018279
310.755105
306.3775541
303.5032645
301.7907964
300.8550502
300.3825673
300.1608608
300.0637342
300.0238533
300.0084525
300.0028421
300.0009087
300.0002768
300.0000805
300.0000224
300.000006
300.0000015
300.0000004
300.0000001
300
300
300
300
300
300
300
300
300
300
300
300
300
300
300
300
300
300
300
300
395.8611003
397.2751355
400.8090471
407.5111445
418.7714338
430.8802033
424.7413198
360.6818769
356.2392402
342.9548598
329.7071589
318.8335425
311.0290564
305.9974594
303.040612
301.4419803
300.6415428
300.2684799
300.1059478
300.0395165
300.0139616
300.0046824
300.0014937
300.0004541
300.0001318
300.0000366
300.0000097
300.0000025
300.0000006
300.0000001
300
300
300
300
300
300
300
300
300
300
300
300
300
300
300
300
300
300
300
300
402.2191509
403.8117118
407.9025404
415.7846447
429.735106
451.1389574
462.999773
407.834934
400.3616
374.4939394
350.4210773
331.4401646
318.1745174
309.7820119
304.9185313
302.31695
301.0251383
300.4270426
300.1678694
300.0624068
300.0219869
300.007356
300.0023415
300.0007105
300.0002058
300.000057
300.0000151
300.0000039
300.0000009
300.0000002
300.0000001
300
300
300
300
300
300
300
300
300
300
300
300
300
300
300
300
300
300
300
409.0792484
410.9212849
415.7486436
425.2458307
442.096036
471.0342556
509.0011526
482.3140968
470.6753482
422.9261801
381.3827653
349.906572
328.4808475
315.175534
307.5695897
303.5428154
301.5592777
300.6467235
300.2533004
300.0938769
300.0329874
300.0110114
300.0034982
300.0010596
300.0003065
300.0000848
300.0000225
300.0000057
300.0000014
300.0000003
300.0000001
300
300
300
300
300
300
300
300
300
300
300
300
300
300
300
300
300
300
300
416.3280474
418.5123341
424.3164314
436.0289096
457.2170427
494.9435967
559.2814389
590.5719321
574.9302779
492.2237591
424.5481853
375.1576897
342.3676459
322.3604457
311.069716
305.149813
302.255476
300.9317156
300.3637009
300.1344131
300.0471182
300.0156959
300.0049776
300.0015053
300.0004349
300.0001202
300.0000318
300.0000081
300.000002
300.0000005
300.0000001
300
300
300
300
300
300
300
300
300
300
300
300
300
300
300
300
300
300
300
423.7527733
426.3676953
433.3931972
447.847212
474.7274594
522.9803756
612.2390948
734.5086471
717.4311341
583.8619037
480.2679227
407.1713404
359.7346844
331.2519698
315.3657475
307.1094185
303.1000013
301.2759564
300.496586
300.1830625
300.0640355
300.0212925
300.0067417
300.002036
300.0005875
300.0001622
300.0000429
300.0000109
300.0000027
300.0000006
300.0000001
300
300
300
300
300
300
300
300
300
300
300
300
300
300
300
300
300
300
300
431.0374949
434.1563149
442.6243776
460.3452547
494.3304501
557.3749708
678.1274674
907.5035225
894.9244278
694.7016875
546.2199797
444.4557592
379.714594
341.3853474
320.2260194
309.3135989
304.0455388
301.6599257
300.6443504
300.2370207
300.0827584
300.027475
300.0086875
300.0026206
300.0007554
300.0002084
300.0000551
300.000014
300.0000034
300.0000008
300.0000002
300
300
300
300
300
300
300
300
300
300
300
300
300
300
300
300
300
300
300
437.7682284
441.4313139
451.4667378
472.7914993
514.6714068
595.1613203
750.0457059
1094.556645
1093.385436
815.5259455
616.7746105
483.7860731
400.5684321
351.8764351
325.2262704
311.5700587
305.0096885
302.0502061
300.7941518
300.2916044
300.101664
300.0337082
300.0106467
300.0032085
300.000924
300.0002547
300.0000673
300.0000171
300.0000042
300.000001
300.0000002
300
300
300
300
300
300
300
300
300
300
300
300
300
300
300
300
300
300
300
443.4625073
447.6545013
459.2179568
484.1125844
533.8715702
632.1445615
824.4046422
1273.542782
1287.515241
931.2248792
683.287741
520.4353279
419.8319015
361.5033082
329.7911692
313.6218112
305.8835823
302.4030456
300.9292992
300.3407635
300.1186662
300.039307
300.0124046
300.0037355
300.0010751
300.0002962
300.0000782
300.0000198
300.0000048
300.0000011
300.0000003
300.0000001
300
300
300
300
300
300
300
300
300
300
300
300
300
300
300
300
300
300
447.6274612
452.2576706
465.0971456
493.0424605
549.7560142
663.9778022
893.2207733
1416.757055
1444.539041
1023.297295
735.5907126
549.0021855
434.7488837
368.9211222
333.2951973
315.1920751
306.5508303
302.6719439
301.0321371
300.378123
300.1315737
300.0435537
300.0137369
300.0041347
300.0011895
300.0003276
300.0000865
300.0000219
300.0000053
300.0000013
300.0000003
300.0000001
300
300
300
300
300
300
300
300
300
300
300
300
300
300
300
300
300
300
449.8393613
454.7272369
468.3229317
498.1176037
559.2185067
683.5449875
941.7136908
1498.041483
1532.968715
1074.5757
764.4937642
564.7000232
442.9121494
372.9679484
335.2023314
316.045159
306.9128067
302.8176508
301.0878094
300.3983323
300.1385514
300.0458482
300.0144565
300.0043502
300.0012512
300.0003445
300.0000909
300.000023
300.0000056
300.0000013
300.0000003
300.0000001
300
300
300
300
300
300
300
300
300
300
300
300
300
300
300
300
300
300
449.8393591
454.7272348
468.3229298
498.1176023
559.2185064
683.5449892
941.7136915
1498.041479
1532.968711
1074.575697
764.4937625
564.7000224
442.9121491
372.9679483
335.2023313
316.0451589
306.9128067
302.8176508
301.0878094
300.3983323
300.1385514
300.0458482
300.0144565
300.0043502
300.0012512
300.0003445
300.0000909
300.000023
300.0000056
300.0000013
300.0000003
300.0000001
300
300
300
300
300
300
300
300
300
300
300
300
300
300
300
300
300
300
447.6274549
452.2576644
465.0971399
493.0424563
549.7560136
663.977807
893.2207848
1416.757046
1444.539028
1023.297286
735.5907084
549.0021835
434.7488828
368.9211219
333.2951971
315.1920751
306.5508303
302.6719439
301.0321371
300.378123
300.1315737
300.0435537
300.0137369
300.0041347
300.0011895
300.0003276
300.0000865
300.0000219
300.0000053
300.0000013
300.0000003
300.0000001
300
300
300
300
300
300
300
300
300
300
300
300
300
300
300
300
300
300
443.4624968
447.654491
459.2179473
484.1125772
533.871569
632.1445731
824.4046698
1273.542774
1287.515225
931.2248691
683.2877365
520.4353259
419.8319007
361.5033078
329.7911691
313.6218112
305.8835823
302.4030456
300.9292992
300.3407635
300.1186662
300.039307
300.0124046
300.0037355
300.0010751
300.0002962
300.0000782
300.0000198
300.0000048
300.0000011
300.0000003
300.0000001
300
300
300
300
300
300
300
300
300
300
300
300
300
300
300
300
300
300
437.7682138
441.4312996
451.4667243
472.7914881
514.6714015
595.1613294
750.0457327
1094.556646
1093.385427
815.5259404
616.7746087
483.7860725
400.5684319
351.8764351
325.2262704
311.5700587
305.0096885
302.0502061
300.7941518
300.2916044
300.101664
300.0337082
300.0106467
300.0032085
300.000924
300.0002547
300.0000673
300.0000171
300.0000042
300.000001
300.0000002
300
300
300
300
300
300
300
300
300
300
300
300
300
300
300
300
300
300
300
431.0374763
434.1562965
442.6243598
460.345238
494.3304351
557.3749563
678.1274331
907.5035118
894.9244324
694.7016915
546.2199823
444.4557607
379.7145948
341.3853478
320.2260195
309.313599
304.0455388
301.6599258
300.6443504
300.2370207
300.0827584
300.027475
300.0086875
300.0026206
300.0007554
300.0002084
300.0000551
300.000014
300.0000034
300.0000008
300.0000002
300
300
300
300
300
300
300
300
300
300
300
300
300
300
300
300
300
300
300
423.752751
426.3676732
433.3931755
447.8471901
474.727434
522.9803323
612.2389834
734.5086923
717.4311545
583.8619154
480.2679288
407.1713436
359.734686
331.2519705
315.3657479
307.1094186
303.1000014
301.2759565
300.496586
300.1830625
300.0640355
300.0212925
300.0067417
300.002036
300.0005875
300.0001622
300.0000429
300.0000109
300.0000027
300.0000006
300.0000001
300
300
300
300
300
300
300
300
300
300
300
300
300
300
300
300
300
300
300
416.328022
418.512309
424.3164069
436.0288852
457.217015
494.9435534
559.2813553
590.5719533
574.9302985
492.2237718
424.5481923
375.1576934
342.3676477
322.3604466
311.0697164
305.1498131
302.255476
300.9317157
300.363701
300.1344131
300.0471182
300.0156959
300.0049776
300.0015053
300.0004349
300.0001202
300.0000318
300.0000081
300.000002
300.0000005
300.0000001
300
300
300
300
300
300
300
300
300
300
300
300
300
300
300
300
300
300
300
409.0792207
410.9212578
415.7486176
425.2458064
442.0960126
471.0342285
509.0011074
482.3141113
470.6753622
422.9261897
381.3827711
349.9065752
328.4808491
315.1755348
307.56959
303.5428155
301.5592778
300.6467235
300.2533004
300.0938769
300.0329874
300.0110114
300.0034982
300.0010596
300.0003065
300.0000848
300.0000225
300.0000057
300.0000014
300.0000003
300.0000001
300
300
300
300
300
300
300
300
300
300
300
300
300
300
300
300
300
300
300
402.2191218
403.8116837
407.9025144
415.7846223
429.7350879
451.1389399
462.9997494
407.8349377
400.3616075
374.4939453
350.4210811
331.4401668
318.1745186
309.7820125
304.9185316
302.3169501
301.0251383
300.4270426
300.1678694
300.0624068
300.0219869
300.007356
300.0023415
300.0007105
300.0002058
300.000057
300.0000151
300.0000039
300.0000009
300.0000002
300.0000001
300
300
300
300
300
300
300
300
300
300
300
300
300
300
300
300
300
300
300
395.8610708
397.2751073
400.8090222
407.511125
418.771421
430.8801878
424.7413019
360.6818769
356.2392439
342.954863
329.7071611
318.8335439
311.0290571
305.9974598
303.0406122
301.4419804
300.6415428
300.2684799
300.1059478
300.0395165
300.0139616
300.0046824
300.0014937
300.0004541
300.0001318
300.0000366
300.0000097
300.0000025
300.0000006
300.0000001
300
300
300
300
300
300
300
300
300
300
300
300
300
300
300
300
300
300
300
300
390.0397172
391.3113594
394.4091877
400.0911716
408.4064492
411.68455
394.9237588
332.9297926
330.2515775
323.6812874
316.701829
310.7551057
306.3775545
303.5032647
301.7907965
300.8550503
300.3825673
300.1608608
300.0637342
300.0238533
300.0084525
300.0028421
300.0009087
300.0002768
300.0000805
300.0000224
300.000006
300.0000015
300.0000004
300.0000001
300
300
300
300
300
300
300
300
300
300
300
300
300
300
300
300
300
300
300
300
384.7465202
385.8990394
388.6526391
393.3025962
397.9463628
394.7937084
372.6126801
317.5260558
315.7547172
312.553133
308.995979
305.8723796
303.5221067
301.9531823
301.0063619
300.4837057
300.2176344
300.0919462
300.0365782
300.0137379
300.0048829
300.0016462
300.0005276
300.000161
300.0000469
300.0000131
300.0000035
300.0000009
300.0000002
300.0000001
300
300
300
300
300
300
300
300
300
300
300
300
300
300
300
300
300
300
300
300
379.9592928
381.0030521
383.3316238
386.938987
387.9879179
380.3642782
356.1153821
309.3230317
308.0247734
306.4420285
304.664403
303.076447
301.862672
301.0415638
300.5405398
300.2614297
300.1182578
300.0501936
300.0200485
300.0075562
300.002694
300.0009107
300.0002926
300.0000895
300.0000261
300.0000073
300.0000019
300.0000005
300.0000001
300
300
300
300
300
300
300
300
300
300
300
300
300
300
300
300
300
300
300
300
300
375.6693789
376.6259618
378.6983788
380.5721112
378.5849333
368.0242865
343.7133185
305.0575167
304.0488652
303.2290909
302.3426402
301.5532661
300.9463965
300.5325793
300.2780514
300.1352135
300.0614634
300.0262012
300.0105058
300.0039731
300.0014208
300.0004816
300.0001551
300.0000475
300.0000139
300.0000039
300.000001
300.0000003
300.0000001
300
300
300
300
300
300
300
300
300
300
300
300
300
300
300
300
300
300
300
300
300
371.8245622
372.7273433
374.1826348
374.1269535
369.6739428
357.334954
334.1221608
302.8544712
302.0582782
301.6010525
301.1498025
300.760475
300.4639949
300.2619547
300.1373092
300.0670516
300.0306037
300.0130961
300.0052696
300.0019993
300.0007171
300.0002437
300.0000787
300.0000242
300.0000071
300.000002
300.0000005
300.0000001
300
300
300
300
300
300
300
300
300
300
300
300
300
300
300
300
300
300
300
300
300
300
368.3737842
369.0949831
369.4629959
367.5804761
361.2225991
347.9708057
326.6343945
301.7103436
301.0787588
300.8000753
300.5590411
300.3644593
300.2209332
300.1244994
300.0653068
300.0319579
300.0146262
300.0062775
300.0025334
300.0009639
300.0003466
300.0001181
300.0000382
300.0000118
300.0000035
300.000001
300.0000003
300.0000001
300
300
300
300
300
300
300
300
300
300
300
300
300
300
300
300
300
300
300
300
300
300
365.1352472
365.3452544
364.4952753
361.0209729
353.2753064
339.7833137
321.0228277
301.0976161
300.5995935
300.4139215
300.2749713
300.1735535
300.1032163
300.0575708
300.0300577
300.0146886
300.0067261
300.0028913
300.0011693
300.0004459
300.0001607
300.0000549
300.0000178
300.0000055
300.0000016
300.0000005
300.0000001
300
300
300
300
300
300
300
300
300
300
300
300
300
300
300
300
300
300
300
300
300
300
300
361.8024878
361.3695045
359.3542865
354.5728859
345.8923408
332.7369704
316.8552005
300.7630792
300.3629718
300.2288617
300.1408823
300.084017
300.0480869
300.0261881
300.0134859
300.006543
300.0029867
300.0012828
300.0005191
300.0001982
300.0000716
300.0000245
300.000008
300.0000025
300.0000007
300.0000002
300.0000001
300
300
300
300
300
300
300
300
300
300
300
300
300
300
300
300
300
300
300
300
300
300
300
358.2488248
357.1766805
354.129587
348.3079678
339.0749526
326.7493259
313.6597746
300.565127
300.2405791
300.1382824
300.0775324
300.0425972
300.0228794
300.0119204
300.0059671
300.0028466
300.0012873
300.0005503
300.0002222
300.0000848
300.0000306
300.0000105
300.0000034
300.0000011
300.0000003
300.0000001
300
300
300
300
300
300
300
300
300
300
300
300
300
300
300
300
300
300
300
300
300
300
300
300
354.4135233
352.7571155
348.8204633
342.1837239
332.7521523
321.7406752
311.0549175
300.4338407
300.1710512
300.0910786
300.0465844
300.0232432
300.0114377
300.0055592
300.0026491
300.001224
300.0005428
300.0002295
300.0000921
300.0000351
300.0000127
300.0000043
300.0000014
300.0000004
300.0000001
300
300
300
300
300
300
300
300
300
300
300
300
300
300
300
300
300
300
300
300
300
300
300
300
300
350.1593427
347.9728831
343.258895
336.0143346
326.7874512
317.483794
308.8217878
300.3358255
300.1260952
300.0636245
300.0302066
300.0137511
300.0061341
300.0027228
300.0012061
300.0005288
300.0002266
300.0000938
300.0000372
300.000014
300.0000051
300.0000017
300.0000006
300.0000002
300.0000001
300
300
300
300
300
300
300
300
300
300
300
300
300
300
300
300
300
300
300
300
300
300
300
300
300
345.1458731
342.4581236
337.0563925
329.4763325
321.0173445
313.527656
306.7713772
300.2536094
300.0926096
300.0451597
300.0203349
300.008606
300.003511
300.0014158
300.0005734
300.0002337
300.000095
300.0000379
300.0000147
300.0000055
300.000002
300.0000007
300.0000002
300.0000001
300
300
300
300
300
300
300
300
300
300
300
300
300
300
300
300
300
300
300
300
300
300
300
300
300
300
338.6404654
335.497755
329.6650069
322.4074283
315.4449702
309.7579834
304.8375165
300.179498
300.0644876
300.0307713
300.0133725
300.0053771
300.0020501
300.0007617
300.0002825
300.000106
300.0000402
300.0000153
300.0000057
300.0000021
300.0000007
300.0000002
300.0000001
300
300
300
300
300
300
300
300
300
300
300
300
300
300
300
300
300
300
300
300
300
300
300
300
300
300
300
329.092444
325.7497664
320.2859746
314.4321488
309.7146676
306.0577849
302.9804117
300.1093843
300.038589
300.0181187
300.0076922
300.0029945
300.0010931
300.000384
300.0001331
300.0000465
300.0000165
300.0000059
300.0000021
300.0000008
300.0000003
300.0000001
300
300
300
300
300
300
300
300
300
300
300
300
300
300
300
300
300
300
300
300
300
300
300
300
300
300
300
300
313.3250548
310.9381087
307.874235
305.3576286
303.5758684
302.2009843
301.0648152
300.0383315
300.0130094
300.0060217
300.0025225
300.0009661
300.0003453
300.000118
300.0000395
300.0000132
300.0000045
300.0000016
300.0000005
300.0000002
300.0000001
300
300
300
300
300
300
300
300
300
300
300
300
300
300
300
300
300
300
300
300
300
300
300
300
300
300
300
300
300
)
;

boundaryField
{
    lowerWall
    {
        type            fixedValue;
        value           uniform 300;
    }
    atmosphere
    {
        type            zeroGradient;
    }
    rightWall
    {
        type            empty;
    }
    leftWall
    {
        type            empty;
    }
    frontAndBack
    {
        type            fixedValue;
        value           uniform 300;
    }
}


// ************************************************************************* //
