/*--------------------------------*- C++ -*----------------------------------*\
  =========                 |
  \\      /  F ield         | OpenFOAM: The Open Source CFD Toolbox
   \\    /   O peration     | Website:  https://openfoam.org
    \\  /    A nd           | Version:  6
     \\/     M anipulation  |
\*---------------------------------------------------------------------------*/
FoamFile
{
    version     2.0;
    format      ascii;
    class       volVectorField;
    location    "0.08";
    object      U;
}
// * * * * * * * * * * * * * * * * * * * * * * * * * * * * * * * * * * * * * //

dimensions      [0 1 -1 0 0 0 0];

internalField   nonuniform List<vector> 
2500
(
(0 -1.015618644 -0.6208425016)
(0 0.1050954772 -0.3369746688)
(0 0.3139785483 -0.1586979583)
(0 0.3747317725 -0.04648440886)
(0 0.3017469154 0.04280545679)
(0 0.1507637335 0.07403408143)
(0 0.01509659615 0.05122886013)
(0 -0.0003698521191 0.001606601237)
(0 -2.918947889e-14 1.265482435e-17)
(0 -5.805747702e-14 -2.468090253e-16)
(0 -5.724992046e-14 -4.883718017e-16)
(0 -5.605011283e-14 -7.11486991e-16)
(0 -5.442822651e-14 -9.102044398e-16)
(0 -5.243807682e-14 -1.079741991e-15)
(0 -5.014105496e-14 -1.217085204e-15)
(0 -4.760271955e-14 -1.321081603e-15)
(0 -4.488922811e-14 -1.392282492e-15)
(0 -4.206422876e-14 -1.432642589e-15)
(0 -3.918641896e-14 -1.445154113e-15)
(0 -3.630784415e-14 -1.433473215e-15)
(0 -3.347291102e-14 -1.401579336e-15)
(0 -3.07180251e-14 -1.353491655e-15)
(0 -2.807172831e-14 -1.293052733e-15)
(0 -2.55552023e-14 -1.223779038e-15)
(0 -2.318301095e-14 -1.148771174e-15)
(0 -2.096397324e-14 -1.070673196e-15)
(0 -1.890207998e-14 -9.916692755e-16)
(0 -1.699739089e-14 -9.135066164e-16)
(0 -1.524686908e-14 -8.375350332e-16)
(0 -1.364512735e-14 -7.647555062e-16)
(0 -1.218507409e-14 -6.958719537e-16)
(0 -1.085845643e-14 -6.313421912e-16)
(0 -9.656304873e-15 -5.714254788e-16)
(0 -8.569287663e-15 -5.162251767e-16)
(0 -7.58798547e-15 -4.657258492e-16)
(0 -6.703097445e-15 -4.198247252e-16)
(0 -5.905589749e-15 -3.783577928e-16)
(0 -5.186796782e-15 -3.411210164e-16)
(0 -4.538484246e-15 -3.078872722e-16)
(0 -3.952882022e-15 -2.784196245e-16)
(0 -3.422693538e-15 -2.524815488e-16)
(0 -2.941087204e-15 -2.298446585e-16)
(0 -2.501674384e-15 -2.102944337e-16)
(0 -2.098477488e-15 -1.936343877e-16)
(0 -1.725890904e-15 -1.796890581e-16)
(0 -1.37863675e-15 -1.683061992e-16)
(0 -1.051716551e-15 -1.59358677e-16)
(0 -7.403583252e-16 -1.527471848e-16)
(0 -4.399538371e-16 -1.484074576e-16)
(0 -1.459610241e-16 -1.463373465e-16)
(0 -0.8582554467 -0.9811366577)
(0 -0.3423720306 -0.6115011933)
(0 -0.07751840255 -0.2053370972)
(0 0.05514744826 0.02840184983)
(0 0.08725754502 0.135258785)
(0 0.0436735846 0.1519389675)
(0 -0.004496211107 0.1112622315)
(0 -0.0001164987089 0.003803502169)
(0 -2.944278471e-14 2.313828947e-17)
(0 -5.855555006e-14 -7.535875736e-16)
(0 -5.771459843e-14 -1.48358395e-15)
(0 -5.647194547e-14 -2.158906311e-15)
(0 -5.479648151e-14 -2.759849336e-15)
(0 -5.274495758e-14 -3.271487355e-15)
(0 -5.038239457e-14 -3.684681537e-15)
(0 -4.777791684e-14 -3.996132043e-15)
(0 -4.500078909e-14 -4.207792743e-15)
(0 -4.211710039e-14 -4.325893395e-15)
(0 -3.918724959e-14 -4.359784007e-15)
(0 -3.626426937e-14 -4.320773527e-15)
(0 -3.339292946e-14 -4.221083776e-15)
(0 -3.06094985e-14 -4.072988616e-15)
(0 -2.794201569e-14 -3.888165245e-15)
(0 -2.541092074e-14 -3.677252861e-15)
(0 -2.302990511e-14 -3.449594022e-15)
(0 -2.080687134e-14 -3.213124266e-15)
(0 -1.87449134e-14 -2.974373229e-15)
(0 -1.684325665e-14 -2.738542977e-15)
(0 -1.509811797e-14 -2.509634419e-15)
(0 -1.350346427e-14 -2.290598739e-15)
(0 -1.205166078e-14 -2.083496739e-15)
(0 -1.073400996e-14 -1.889654323e-15)
(0 -9.541187858e-15 -1.709806614e-15)
(0 -8.463588034e-15 -1.544226587e-15)
(0 -7.491585019e-15 -1.392836472e-15)
(0 -6.615729388e-15 -1.255301858e-15)
(0 -5.826886041e-15 -1.131109487e-15)
(0 -5.116326261e-15 -1.019630315e-15)
(0 -4.475782854e-15 -9.201696901e-16)
(0 -3.897476298e-15 -8.320065809e-16)
(0 -3.374118572e-15 -7.544236853e-16)
(0 -2.898900089e-15 -6.867301137e-16)
(0 -2.465464113e-15 -6.282781392e-16)
(0 -2.067872112e-15 -5.7847531e-16)
(0 -1.700562715e-15 -5.367930459e-16)
(0 -1.358306369e-15 -5.02772711e-16)
(0 -1.036157536e-15 -4.760301748e-16)
(0 -7.294071057e-16 -4.562602354e-16)
(0 -4.335439988e-16 -4.432436572e-16)
(0 -1.43890913e-16 -4.368644968e-16)
(0 -0.8727915736 -1.210856106)
(0 -0.5847220379 -0.9526749865)
(0 -0.2528516095 -0.4607539451)
(0 -0.07644714152 -0.08060383625)
(0 -0.02145184171 0.1091323356)
(0 -0.01566643651 0.1520068945)
(0 -0.0108695589 0.121004817)
(0 5.249420298e-05 0.0005185605799)
(0 -2.994693785e-14 2.502393455e-18)
(0 -5.95549944e-14 -1.292805412e-15)
(0 -5.86552392e-14 -2.53345525e-15)
(0 -5.732637822e-14 -3.680721409e-15)
(0 -5.554080756e-14 -4.698818667e-15)
(0 -5.336290902e-14 -5.561703712e-15)
(0 -5.086569965e-14 -6.254059548e-15)
(0 -4.812583075e-14 -6.771022989e-15)
(0 -4.521898946e-14 -7.11692719e-15)
(0 -4.221622003e-14 -7.303431719e-15)
(0 -3.918129909e-14 -7.347405056e-15)
(0 -3.616914392e-14 -7.268854656e-15)
(0 -3.322512611e-14 -7.089105406e-15)
(0 -3.038510657e-14 -6.829334566e-15)
(0 -2.767599256e-14 -6.509495428e-15)
(0 -2.511663108e-14 -6.147608717e-15)
(0 -2.271888236e-14 -5.759369496e-15)
(0 -2.048875245e-14 -5.358003844e-15)
(0 -1.842749869e-14 -4.954308661e-15)
(0 -1.653265208e-14 -4.556814569e-15)
(0 -1.479892484e-14 -4.17202223e-15)
(0 -1.321898967e-14 -3.804673733e-15)
(0 -1.178412967e-14 -3.458031323e-15)
(0 -1.048476631e-14 -3.134144885e-15)
(0 -9.310877138e-15 -2.834096785e-15)
(0 -8.252317522e-15 -2.55821821e-15)
(0 -7.299060741e-15 -2.306274938e-15)
(0 -6.441370459e-15 -2.077623118e-15)
(0 -5.669918206e-15 -1.871337181e-15)
(0 -4.975856985e-15 -1.68631288e-15)
(0 -4.350860512e-15 -1.521348803e-15)
(0 -3.787136017e-15 -1.375209703e-15)
(0 -3.277417071e-15 -1.246674811e-15)
(0 -2.814941658e-15 -1.134573979e-15)
(0 -2.39341958e-15 -1.037814155e-15)
(0 -2.006992395e-15 -9.553983235e-16)
(0 -1.650188305e-15 -8.864387071e-16)
(0 -1.317873879e-15 -8.301657142e-16)
(0 -1.005204075e-15 -7.859337798e-16)
(0 -7.075718076e-16 -7.532247309e-16)
(0 -4.205580985e-16 -7.316476582e-16)
(0 -1.395818637e-16 -7.209272886e-16)
(0 -0.8799604008 -1.305995292)
(0 -0.7818782816 -1.224651557)
(0 -0.4351713208 -0.7333433142)
(0 -0.1729024135 -0.2274498448)
(0 -0.04973823197 0.0617864952)
(0 -0.03818590394 0.124281936)
(0 -0.00919362853 0.1027156155)
(0 0.0001116895372 -0.003001298143)
(0 -3.073307985e-14 -1.990456097e-17)
(0 -6.109165119e-14 -1.881872481e-15)
(0 -6.010251442e-14 -3.676648456e-15)
(0 -5.863730889e-14 -5.331642463e-15)
(0 -5.667746382e-14 -6.792928514e-15)
(0 -5.430019847e-14 -8.02237521e-15)
(0 -5.159171385e-14 -8.998758508e-15)
(0 -4.864078448e-14 -9.716907462e-15)
(0 -4.553319782e-14 -1.018540263e-14)
(0 -4.234757825e-14 -1.042344941e-14)
(0 -3.915267252e-14 -1.04575037e-14)
(0 -3.600596972e-14 -1.031809247e-14)
(0 -3.295340937e-14 -1.003710859e-14)
(0 -3.002988852e-14 -9.645709142e-15)
(0 -2.726028985e-14 -9.172832388e-15)
(0 -2.466079481e-14 -8.644274016e-15)
(0 -2.224030024e-14 -8.082225243e-15)
(0 -2.000181051e-14 -7.505163188e-15)
(0 -1.794372413e-14 -6.927989368e-15)
(0 -1.606097022e-14 -6.362326839e-15)
(0 -1.434597713e-14 -5.816904771e-15)
(0 -1.278947336e-14 -5.297977516e-15)
(0 -1.138113193e-14 -4.80974135e-15)
(0 -1.011007542e-14 -4.354725315e-15)
(0 -8.965261183e-15 -3.934142704e-15)
(0 -7.935766186e-15 -3.548197133e-15)
(0 -7.010989927e-15 -3.196342147e-15)
(0 -6.180791631e-15 -2.877496527e-15)
(0 -5.435575802e-15 -2.590219334e-15)
(0 -4.766337883e-15 -2.332849593e-15)
(0 -4.164679677e-15 -2.103615782e-15)
(0 -3.622802306e-15 -1.900720114e-15)
(0 -3.133482848e-15 -1.722402195e-15)
(0 -2.690039433e-15 -1.566986135e-15)
(0 -2.286288457e-15 -1.432914606e-15)
(0 -1.916496664e-15 -1.318772815e-15)
(0 -1.575330106e-15 -1.223304839e-15)
(0 -1.257801441e-15 -1.145424281e-15)
(0 -9.592165531e-16 -1.084220776e-15)
(0 -6.751209841e-16 -1.038963336e-15)
(0 -4.012465565e-16 -1.009100955e-15)
(0 -1.331705434e-16 -9.942609066e-16)
(0 -0.8585588002 -1.296470638)
(0 -0.9391394416 -1.423800452)
(0 -0.6375739239 -1.043035306)
(0 -0.3179318164 -0.4826881336)
(0 -0.05674690901 -0.0139362211)
(0 -0.03789223363 0.09809318498)
(0 -0.00712618009 0.07957791366)
(0 0.0001270300486 -0.005270562922)
(0 -3.18224063e-14 -3.63170968e-17)
(0 -6.322199409e-14 -2.544340209e-15)
(0 -6.210500918e-14 -4.959562548e-15)
(0 -6.044265828e-14 -7.176191353e-15)
(0 -5.82315403e-14 -9.118791664e-15)
(0 -5.556873901e-14 -1.073602797e-14)
(0 -5.25602319e-14 -1.200162083e-14)
(0 -4.931247487e-14 -1.291239003e-14)
(0 -4.592553141e-14 -1.348428728e-14)
(0 -4.24883211e-14 -1.374743599e-14)
(0 -3.907594216e-14 -1.374105747e-14)
(0 -3.57487488e-14 -1.350890277e-14)
(0 -3.255274277e-14 -1.309553426e-14)
(0 -2.952083037e-14 -1.254357229e-14)
(0 -2.667455743e-14 -1.189186426e-14)
(0 -2.402602393e-14 -1.117444329e-14)
(0 -2.157977153e-14 -1.042010689e-14)
(0 -1.933451658e-14 -9.652445175e-15)
(0 -1.728466234e-14 -8.890167498e-15)
(0 -1.542156748e-14 -8.147605031e-15)
(0 -1.373457552e-14 -7.435296574e-15)
(0 -1.221182625e-14 -6.760592115e-15)
(0 -1.084087747e-14 -6.12823119e-15)
(0 -9.609167662e-15 -5.540870538e-15)
(0 -8.504348956e-15 -4.999548315e-15)
(0 -7.514516965e-15 -4.504080954e-15)
(0 -6.628360135e-15 -4.053394434e-15)
(0 -5.835247646e-15 -3.645795102e-15)
(0 -5.125271272e-15 -3.279186938e-15)
(0 -4.489253433e-15 -2.951242725e-15)
(0 -3.918731033e-15 -2.659536529e-15)
(0 -3.40592243e-15 -2.40164434e-15)
(0 -2.943683092e-15 -2.175219016e-15)
(0 -2.525454069e-15 -1.978044847e-15)
(0 -2.14520626e-15 -1.808076245e-15)
(0 -1.797382628e-15 -1.663464299e-15)
(0 -1.47683977e-15 -1.542574267e-15)
(0 -1.178789815e-15 -1.44399644e-15)
(0 -8.987431307e-16 -1.366552305e-15)
(0 -6.324519864e-16 -1.309297454e-15)
(0 -3.758556689e-16 -1.271522425e-15)
(0 -1.247418158e-16 -1.252752913e-15)
(0 -0.768663051 -1.182236928)
(0 -1.025079716 -1.507672349)
(0 -0.8301402391 -1.322871638)
(0 -0.5133296144 -0.8093846088)
(0 -0.1529513139 -0.2165698528)
(0 -0.02200680408 0.06315780706)
(0 -0.0116925301 0.05779954604)
(0 0.0002075268155 -0.007705084083)
(0 -3.32584395e-14 -4.932156303e-17)
(0 -6.603192094e-14 -3.310163148e-15)
(0 -6.473436557e-14 -6.440976752e-15)
(0 -6.2796538e-14 -9.294648359e-15)
(0 -6.023730043e-14 -1.176989361e-14)
(0 -5.718302763e-14 -1.380120869e-14)
(0 -5.376807591e-14 -1.535921111e-14)
(0 -5.012345093e-14 -1.644667361e-14)
(0 -4.636824379e-14 -1.709187484e-14)
(0 -4.260434845e-14 -1.7340927e-14)
(0 -3.891413929e-14 -1.725038317e-14)
(0 -3.53604465e-14 -1.688093636e-14)
(0 -3.198807889e-14 -1.629257201e-14)
(0 -2.882621853e-14 -1.554120531e-14)
(0 -2.589116085e-14 -1.467663499e-14)
(0 -2.318903744e-14 -1.374155374e-14)
(0 -2.071830212e-14 -1.277133797e-14)
(0 -1.847187112e-14 -1.179436471e-14)
(0 -1.643888398e-14 -1.083264906e-14)
(0 -1.460609929e-14 -9.902644825e-15)
(0 -1.295896422e-14 -9.016097082e-15)
(0 -1.148240798e-14 -8.180873231e-15)
(0 -1.016141035e-14 -7.401728474e-15)
(0 -8.981392546e-15 -6.68098305e-15)
(0 -7.9284716e-15 -6.019103111e-15)
(0 -6.989612305e-15 -5.415186615e-15)
(0 -6.152704074e-15 -4.867361111e-15)
(0 -5.406584135e-15 -4.37310322e-15)
(0 -4.741023426e-15 -3.929490626e-15)
(0 -4.146687475e-15 -3.533397362e-15)
(0 -3.615081292e-15 -3.181642405e-15)
(0 -3.138484793e-15 -2.871100552e-15)
(0 -2.709883356e-15 -2.598783329e-15)
(0 -2.322896663e-15 -2.361896498e-15)
(0 -1.971707909e-15 -2.157879635e-15)
(0 -1.650994685e-15 -1.984432211e-15)
(0 -1.355862247e-15 -1.839529789e-15)
(0 -1.08177948e-15 -1.721433182e-15)
(0 -8.245175667e-16 -1.62869281e-15)
(0 -5.800911034e-16 -1.560149993e-15)
(0 -3.447020154e-16 -1.514936601e-15)
(0 -1.144010313e-16 -1.492474285e-15)
(0 -0.5870687396 -0.971283668)
(0 -0.9957561814 -1.449908758)
(0 -0.9605714354 -1.520089631)
(0 -0.7162711031 -1.161819177)
(0 -0.3102609787 -0.5252141546)
(0 -0.02137451384 -0.01448503126)
(0 -0.01173089202 0.04726992412)
(0 0.0001972836243 -0.01116716766)
(0 -3.510531044e-14 -6.436223025e-17)
(0 -6.963862421e-14 -4.221809709e-15)
(0 -6.808949439e-14 -8.199397923e-15)
(0 -6.577157513e-14 -1.179135315e-14)
(0 -6.273810064e-14 -1.486474539e-14)
(0 -5.915805652e-14 -1.733954154e-14)
(0 -5.520569682e-14 -1.918721398e-14)
(0 -5.10451386e-14 -2.042312943e-14)
(0 -4.68197848e-14 -2.109555938e-14)
(0 -4.264682944e-14 -2.12739934e-14)
(0 -3.861595151e-14 -2.103861551e-14)
(0 -3.479093764e-14 -2.047190794e-14)
(0 -3.121301173e-14 -1.965264281e-14)
(0 -2.790489336e-14 -1.865207764e-14)
(0 -2.487490586e-14 -1.753195338e-14)
(0 -2.212072691e-14 -1.634383389e-14)
(0 -1.963258249e-14 -1.512935851e-14)
(0 -1.739582767e-14 -1.392105463e-14)
(0 -1.539294246e-14 -1.274344295e-14)
(0 -1.36050155e-14 -1.161424772e-14)
(0 -1.201280392e-14 -1.054558947e-14)
(0 -1.059745764e-14 -9.545087641e-15)
(0 -9.340987292e-15 -8.616835915e-15)
(0 -8.226542299e-15 -7.762237138e-15)
(0 -7.238552521e-15 -6.980699542e-15)
(0 -6.362774966e-15 -6.270204764e-15)
(0 -5.58627674e-15 -5.627762399e-15)
(0 -4.897377161e-15 -5.049767287e-15)
(0 -4.285565414e-15 -4.532275488e-15)
(0 -3.741405212e-15 -4.071213639e-15)
(0 -3.256434223e-15 -3.662534719e-15)
(0 -2.823063353e-15 -3.30233139e-15)
(0 -2.434479038e-15 -2.986916302e-15)
(0 -2.084550375e-15 -2.712877102e-15)
(0 -1.767741973e-15 -2.477112423e-15)
(0 -1.479032781e-15 -2.276853907e-15)
(0 -1.213840741e-15 -2.109678255e-15)
(0 -9.679528365e-16 -1.973512437e-15)
(0 -7.374599415e-16 -1.8666345e-15)
(0 -5.18695778e-16 -1.787671846e-15)
(0 -3.081799612e-16 -1.735598437e-15)
(0 -1.022794996e-16 -1.709732031e-15)
(0 -0.3234198525 -0.6882306572)
(0 -0.8242435118 -1.237528812)
(0 -0.9751614198 -1.573959394)
(0 -0.872423803 -1.468129463)
(0 -0.5006675439 -0.9107575293)
(0 -0.09996665979 -0.2190358783)
(0 -0.001859213912 0.03161140196)
(0 -0.000140550859 -0.01476447292)
(0 -3.745093603e-14 -8.202762521e-17)
(0 -7.420466777e-14 -5.340228052e-15)
(0 -7.230390901e-14 -1.034328855e-14)
(0 -6.946188547e-14 -1.480635699e-14)
(0 -6.578548882e-14 -1.855793612e-14)
(0 -6.150549621e-14 -2.15047789e-14)
(0 -5.685166381e-14 -2.362680951e-14)
(0 -5.203179633e-14 -2.496296482e-14)
(0 -4.721910776e-14 -2.559318648e-14)
(0 -4.254740457e-14 -2.562086034e-14)
(0 -3.811205383e-14 -2.515819616e-14)
(0 -3.397447381e-14 -2.431547478e-14)
(0 -3.016824859e-14 -2.319406137e-14)
(0 -2.67055291e-14 -2.18825601e-14)
(0 -2.35829171e-14 -2.04553168e-14)
(0 -2.078644257e-14 -1.897251568e-14)
(0 -1.829552287e-14 -1.748124781e-14)
(0 -1.608595555e-14 -1.601708656e-14)
(0 -1.413207707e-14 -1.460584865e-14)
(0 -1.240824582e-14 -1.326533638e-14)
(0 -1.088980414e-14 -1.200694334e-14)
(0 -9.553654424e-15 -1.083706567e-14)
(0 -8.378559848e-15 -9.758300658e-15)
(0 -7.345256173e-15 -8.770437463e-15)
(0 -6.436439226e-15 -7.871258304e-15)
(0 -5.636675162e-15 -7.057173867e-15)
(0 -4.932266597e-15 -6.323718422e-15)
(0 -4.311097224e-15 -5.665928985e-15)
(0 -3.762469778e-15 -5.078630567e-15)
(0 -3.276946706e-15 -4.55664659e-15)
(0 -2.846199042e-15 -4.094950643e-15)
(0 -2.462866376e-15 -3.688772911e-15)
(0 -2.120429068e-15 -3.333672132e-15)
(0 -1.813092783e-15 -3.025581818e-15)
(0 -1.535684713e-15 -2.760837617e-15)
(0 -1.283560517e-15 -2.536191279e-15)
(0 -1.052520777e-15 -2.348815418e-15)
(0 -8.38735725e-16 -2.196302347e-15)
(0 -6.386769752e-16 -2.076659451e-15)
(0 -4.49055041e-16 -1.988303006e-15)
(0 -2.667622009e-16 -1.930051831e-15)
(0 -8.853462509e-17 -1.901121813e-15)
(0 -0.03687523847 -0.3835655124)
(0 -0.528189184 -0.8969360104)
(0 -0.8438507157 -1.446785227)
(0 -0.9270790356 -1.648324208)
(0 -0.6751909908 -1.304139777)
(0 -0.2418009764 -0.5538889114)
(0 0.009166460202 -0.01658791951)
(0 -0.0005584519738 -0.01756451819)
(0 -4.042345327e-14 -1.078340187e-16)
(0 -7.995380273e-14 -6.756817474e-15)
(0 -7.755562333e-14 -1.302693241e-14)
(0 -7.39862227e-14 -1.853245975e-14)
(0 -6.943652254e-14 -2.305549781e-14)
(0 -6.422692991e-14 -2.649453369e-14)
(0 -5.866388274e-14 -2.885207553e-14)
(0 -5.301151557e-14 -3.020861673e-14)
(0 -4.747768032e-14 -3.069331734e-14)
(0 -4.221183912e-14 -3.0458075e-14)
(0 -3.731056595e-14 -2.965787869e-14)
(0 -3.282680285e-14 -2.843779753e-14)
(0 -2.878009706e-14 -2.692563923e-14)
(0 -2.516614879e-14 -2.522885554e-14)
(0 -2.196486144e-14 -2.343430371e-14)
(0 -1.914665791e-14 -2.160972201e-14)
(0 -1.667715338e-14 -1.980607949e-14)
(0 -1.452042851e-14 -1.806023548e-14)
(0 -1.264119228e-14 -1.6397561e-14)
(0 -1.100611019e-14 -1.483433109e-14)
(0 -9.584533213e-15 -1.337980109e-14)
(0 -8.348814961e-15 -1.203794538e-14)
(0 -7.274359082e-15 -1.080887391e-14)
(0 -6.339499944e-15 -9.689960902e-15)
(0 -5.525288926e-15 -8.676727022e-15)
(0 -4.815235084e-15 -7.763516768e-15)
(0 -4.195031858e-15 -6.944009801e-15)
(0 -3.652289306e-15 -6.211599981e-15)
(0 -3.176283018e-15 -5.559670763e-15)
(0 -2.757725288e-15 -4.981790537e-15)
(0 -2.388560544e-15 -4.471847022e-15)
(0 -2.061784842e-15 -4.024135914e-15)
(0 -1.771287945e-15 -3.633415798e-15)
(0 -1.51171586e-15 -3.294938648e-15)
(0 -1.278351434e-15 -3.004463151e-15)
(0 -1.067010583e-15 -2.758256379e-15)
(0 -8.739518093e-16 -2.553088019e-15)
(0 -6.957968688e-16 -2.386220334e-15)
(0 -5.294606005e-16 -2.255396232e-15)
(0 -3.720881587e-16 -2.158827201e-15)
(0 -2.209987682e-16 -2.095182392e-15)
(0 -7.334948106e-17 -2.06357977e-15)
(0 0.1717424363 -0.118449379)
(0 -0.1818943513 -0.500964942)
(0 -0.5858034361 -1.145978319)
(0 -0.8559737614 -1.644119354)
(0 -0.7871115111 -1.618352441)
(0 -0.4035107068 -0.9590040306)
(0 0.00988668343 -0.1224327195)
(0 -7.333866787e-05 -0.01435387436)
(0 -4.419344083e-14 -1.258917871e-16)
(0 -8.719661622e-14 -8.612697535e-15)
(0 -8.407955129e-14 -1.647465235e-14)
(0 -7.949045087e-14 -2.324047082e-14)
(0 -7.374756275e-14 -2.863654224e-14)
(0 -6.730207394e-14 -3.256539293e-14)
(0 -6.056574685e-14 -3.5078099e-14)
(0 -5.387303813e-14 -3.632599554e-14)
(0 -4.746856603e-14 -3.651337566e-14)
(0 -4.151196592e-14 -3.586029323e-14)
(0 -3.609177635e-14 -3.457753239e-14)
(0 -3.124223435e-14 -3.285229926e-14)
(0 -2.69593066e-14 -3.084194557e-14)
(0 -2.321419357e-14 -2.867301486e-14)
(0 -1.996378356e-14 -2.644340451e-14)
(0 -1.715821835e-14 -2.42260599e-14)
(0 -1.474603634e-14 -2.207317034e-14)
(0 -1.267743706e-14 -2.002026058e-14)
(0 -1.090617268e-14 -1.808986413e-14)
(0 -9.390485908e-15 -1.629465254e-14)
(0 -8.093418434e-15 -1.464000416e-14)
(0 -6.982727239e-15 -1.312605481e-14)
(0 -6.030575372e-15 -1.174929824e-14)
(0 -5.21310929e-15 -1.050381139e-14)
(0 -4.509995092e-15 -9.38217574e-15)
(0 -3.903957941e-15 -8.376158116e-15)
(0 -3.38034981e-15 -7.477204393e-15)
(0 -2.926758186e-15 -6.676789762e-15)
(0 -2.532660334e-15 -5.966660682e-15)
(0 -2.189122965e-15 -5.338996049e-15)
(0 -1.888544419e-15 -4.786508994e-15)
(0 -1.624435152e-15 -4.302505774e-15)
(0 -1.391231802e-15 -3.880914278e-15)
(0 -1.184140136e-15 -3.516291596e-15)
(0 -9.990024449e-16 -3.203817758e-15)
(0 -8.321853855e-16 -2.939280914e-15)
(0 -6.80484732e-16 -2.719057849e-15)
(0 -5.41043938e-16 -2.5400927e-15)
(0 -4.112838417e-16 -2.399875956e-15)
(0 -2.888412009e-16 -2.296425227e-15)
(0 -1.715147705e-16 -2.228268849e-15)
(0 -5.693200321e-17 -2.194433059e-15)
(0 0.2309102735 -0.01359295453)
(0 0.09706496644 -0.1702051413)
(0 -0.2714124362 -0.7378289762)
(0 -0.6795813727 -1.443205455)
(0 -0.816061686 -1.779772673)
(0 -0.5493086998 -1.362060893)
(0 -0.0501849075 -0.3962118566)
(0 0.002313967339 -0.009435156297)
(0 -4.899100425e-14 -4.788469806e-16)
(0 -9.638856858e-14 -1.115145846e-14)
(0 -9.218339662e-14 -2.101756181e-14)
(0 -8.614811259e-14 -2.931734977e-14)
(0 -7.876144464e-14 -3.568406557e-14)
(0 -7.066848668e-14 -4.005189576e-14)
(0 -6.242448535e-14 -4.256866718e-14)
(0 -5.444679222e-14 -4.350381181e-14)
(0 -4.701197801e-14 -4.317394269e-14)
(0 -4.027599586e-14 -4.189230765e-14)
(0 -3.430257197e-14 -3.993980763e-14)
(0 -2.909121602e-14 -3.75520756e-14)
(0 -2.460081266e-14 -3.491697226e-14)
(0 -2.076760773e-14 -3.217797871e-14)
(0 -1.751790648e-14 -2.944034354e-14)
(0 -1.477642374e-14 -2.677802625e-14)
(0 -1.247135407e-14 -2.424034659e-14)
(0 -1.05371223e-14 -2.185782192e-14)
(0 -8.915584239e-15 -1.964701914e-14)
(0 -7.556250217e-15 -1.761443726e-14)
(0 -6.415935478e-15 -1.575952668e-14)
(0 -5.458109045e-15 -1.407698381e-14)
(0 -4.652115671e-15 -1.255846063e-14)
(0 -3.972377442e-15 -1.119381506e-14)
(0 -3.397635647e-15 -9.972008332e-15)
(0 -2.910263736e-15 -8.881735722e-15)
(0 -2.495663503e-15 -7.911858843e-15)
(0 -2.141745595e-15 -7.051692138e-15)
(0 -1.838489306e-15 -6.291183796e-15)
(0 -1.577573599e-15 -5.621021331e-15)
(0 -1.352070269e-15 -5.032684335e-15)
(0 -1.156190127e-15 -4.51846108e-15)
(0 -9.850737669e-16 -4.071441145e-15)
(0 -8.346193402e-16 -3.685492973e-15)
(0 -7.013407529e-16 -3.355232742e-15)
(0 -5.822506732e-16 -3.075989146e-15)
(0 -4.747635947e-16 -2.843767339e-15)
(0 -3.766149761e-16 -2.655214332e-15)
(0 -2.857931274e-16 -2.507587416e-15)
(0 -2.004810517e-16 -2.398726714e-15)
(0 -1.190066008e-16 -2.327032573e-15)
(0 -3.951369133e-17 -2.291448287e-15)
(0 0.2278499882 0.003911695345)
(0 0.2147647789 -0.007989915402)
(0 0.008185694394 -0.3358533347)
(0 -0.4449564545 -1.086323526)
(0 -0.7700086451 -1.753959361)
(0 -0.6775665385 -1.692494492)
(0 -0.1891369474 -0.7856689838)
(0 0.005626301059 -0.02965251787)
(0 -5.485408179e-14 -8.328247659e-16)
(0 -1.078564374e-13 -1.454703002e-14)
(0 -1.022454426e-13 -2.712461553e-14)
(0 -9.415695464e-14 -3.732579701e-14)
(0 -8.448210874e-14 -4.472940699e-14)
(0 -7.418667554e-14 -4.938884923e-14)
(0 -6.40176629e-14 -5.164062578e-14)
(0 -5.447831365e-14 -5.19466582e-14)
(0 -4.585706187e-14 -5.0786437e-14)
(0 -3.827783086e-14 -4.859541317e-14)
(0 -3.17515443e-14 -4.573755362e-14)
(0 -2.621939899e-14 -4.249944516e-14)
(0 -2.158520971e-14 -3.909608042e-14)
(0 -1.773756485e-14 -3.568174076e-14)
(0 -1.45638311e-14 -3.236208808e-14)
(0 -1.19582214e-14 -2.920544918e-14)
(0 -9.825832013e-15 -2.625243784e-14)
(0 -8.08410961e-15 -2.352371195e-14)
(0 -6.66278802e-15 -2.102598875e-14)
(0 -5.502993452e-15 -1.875657472e-14)
(0 -4.555964981e-15 -1.670669701e-14)
(0 -3.781661185e-15 -1.486390237e-14)
(0 -3.147406626e-15 -1.321375018e-14)
(0 -2.626656991e-15 -1.174098152e-14)
(0 -2.197915751e-15 -1.043030627e-14)
(0 -1.843808452e-15 -9.266915632e-15)
(0 -1.550306226e-15 -8.236800256e-15)
(0 -1.306083139e-15 -7.32693276e-15)
(0 -1.101989528e-15 -6.525357382e-15)
(0 -9.306235045e-16 -5.82121741e-15)
(0 -7.859841676e-16 -5.204742243e-15)
(0 -6.631919605e-16 -4.667209482e-15)
(0 -5.582636952e-16 -4.200892821e-15)
(0 -4.679317341e-16 -3.799003159e-15)
(0 -3.894986179e-16 -3.45562802e-15)
(0 -3.207199824e-16 -3.165672689e-15)
(0 -2.597099178e-16 -2.924805287e-15)
(0 -2.048640148e-16 -2.729407264e-15)
(0 -1.547962238e-16 -2.576530166e-15)
(0 -1.082863577e-16 -2.463859228e-15)
(0 -6.423634304e-17 -2.389684086e-15)
(0 -2.134771688e-17 -2.35287675e-15)
(0 0.226352992 0.003208617522)
(0 0.2249557679 0.02779632946)
(0 0.1766295769 -0.05786937111)
(0 -0.196891944 -0.6515605896)
(0 -0.6578049533 -1.541486269)
(0 -0.7923960037 -1.901212125)
(0 -0.3963922612 -1.222767889)
(0 0.007201957761 -0.1224938614)
(0 -6.261322567e-14 -6.653388813e-16)
(0 -1.229619193e-13 -1.921953995e-14)
(0 -1.149621636e-13 -3.560449368e-14)
(0 -1.03752904e-13 -4.812944339e-14)
(0 -9.082449686e-14 -5.651750048e-14)
(0 -7.757970547e-14 -6.113284033e-14)
(0 -6.498229432e-14 -6.265823955e-14)
(0 -5.359260344e-14 -6.185597749e-14)
(0 -4.366073298e-14 -5.943009076e-14)
(0 -3.522711247e-14 -5.596574095e-14)
(0 -2.820660397e-14 -5.191590635e-14)
(0 -2.244974283e-14 -4.761237458e-14)
(0 -1.778310825e-14 -4.328640669e-14)
(0 -1.403361539e-14 -3.909100267e-14)
(0 -1.10416149e-14 -3.512095761e-14)
(0 -8.666773497e-15 -3.142934455e-14)
(0 -6.78961684e-15 -2.804031356e-14)
(0 -5.310673209e-15 -2.495864661e-14)
(0 -4.148447007e-15 -2.217667983e-14)
(0 -3.236958476e-15 -1.967919454e-14)
(0 -2.523263128e-15 -1.744679445e-14)
(0 -1.965162218e-15 -1.545818286e-14)
(0 -1.529194818e-15 -1.369165663e-14)
(0 -1.188933531e-15 -1.212605244e-14)
(0 -9.235697617e-16 -1.074131588e-14)
(0 -7.167577244e-16 -9.518815666e-15)
(0 -5.556806307e-16 -8.441488727e-15)
(0 -4.303027216e-16 -7.493876068e-15)
(0 -3.327739562e-16 -6.662090433e-15)
(0 -2.569584602e-16 -5.933743748e-15)
(0 -1.98062341e-16 -5.297853068e-15)
(0 -1.523407048e-16 -4.744737405e-15)
(0 -1.168674434e-16 -4.265913421e-15)
(0 -8.935453984e-17 -3.853995037e-15)
(0 -6.80102829e-17 -3.502599983e-15)
(0 -5.142793963e-17 -3.206265038e-15)
(0 -3.849817025e-17 -2.960370808e-15)
(0 -2.833985472e-17 -2.761076405e-15)
(0 -2.024509086e-17 -2.605264032e-15)
(0 -1.363497211e-17 -2.49049333e-15)
(0 -8.024122823e-18 -2.414965252e-15)
(0 -2.70635493e-18 -2.37749522e-15)
(0 0.2398879587 0.007404221817)
(0 0.2263687348 0.03517758476)
(0 0.2267042392 0.06211076603)
(0 0.03174392042 -0.2332118601)
(0 -0.4684797341 -1.165206403)
(0 -0.8721542968 -1.947535984)
(0 -0.6491503795 -1.662886465)
(0 0.003386583517 -0.3429823259)
(0 -7.346769091e-14 -1.937324576e-15)
(0 -1.435403558e-13 -2.657940156e-14)
(0 -1.31155346e-13 -4.794073341e-14)
(0 -1.150699614e-13 -6.306678247e-14)
(0 -9.748550567e-14 -7.207671681e-14)
(0 -8.032741461e-14 -7.596637207e-14)
(0 -6.474080006e-14 -7.60038037e-14)
(0 -5.125016485e-14 -7.338951438e-14)
(0 -3.996682534e-14 -6.911286767e-14)
(0 -3.076364645e-14 -6.392215909e-14)
(0 -2.339817793e-14 -5.834845877e-14)
(0 -1.758989932e-14 -5.274813148e-14)
(0 -1.306383779e-14 -4.734646025e-14)
(0 -9.572115778e-15 -4.227511441e-14)
(0 -6.902172988e-15 -3.760153999e-14)
(0 -4.877577349e-15 -3.335075494e-14)
(0 -3.355134071e-15 -2.952088772e-14)
(0 -2.220475875e-15 -2.609391914e-14)
(0 -1.383335943e-15 -2.304291055e-14)
(0 -7.731080796e-16 -2.03367389e-14)
(0 -3.349533026e-16 -1.794310571e-14)
(0 -2.652336286e-17 -1.583037554e-14)
(0 1.847237902e-16 -1.396863578e-14)
(0 3.236837581e-16 -1.233024889e-14)
(0 4.093210241e-16 -1.08900816e-14)
(0 4.560187042e-16 -9.625534687e-15)
(0 4.746333722e-16 -8.516455346e-15)
(0 4.733151546e-16 -7.544985146e-15)
(0 4.581427929e-16 -6.695377801e-15)
(0 4.33613861e-16 -5.953807863e-15)
(0 4.030221752e-16 -5.308183182e-15)
(0 3.687476859e-16 -4.747968457e-15)
(0 3.324786727e-16 -4.2640237e-15)
(0 2.953817037e-16 -3.848459285e-15)
(0 2.582313806e-16 -3.494507915e-15)
(0 2.215091928e-16 -3.196413076e-15)
(0 1.854787156e-16 -2.949333181e-15)
(0 1.502427613e-16 -2.749260421e-15)
(0 1.157868506e-16 -2.592953312e-15)
(0 8.201242281e-17 -2.477882028e-15)
(0 4.876176785e-17 -2.402185675e-15)
(0 1.612231518e-17 -2.364640857e-15)
(0 0.267272882 0.01490877307)
(0 0.2525019993 0.04634162093)
(0 0.2471838272 0.1052947294)
(0 0.2060667378 0.08037756046)
(0 -0.1836414734 -0.665542948)
(0 -0.8557024632 -1.783644091)
(0 -0.8934011935 -2.0471577)
(0 -0.00929903919 -0.7414276646)
(0 -8.79913824e-14 -5.218341177e-15)
(0 -1.7069864e-13 -3.864377199e-14)
(0 -1.514495445e-13 -6.650666652e-14)
(0 -1.278888874e-13 -8.411585717e-14)
(0 -1.037240865e-13 -9.27548448e-14)
(0 -8.150679237e-14 -9.465245986e-14)
(0 -6.240543663e-14 -9.200214104e-14)
(0 -4.670166741e-14 -8.658661209e-14)
(0 -3.419337768e-14 -7.97107917e-14)
(0 -2.446270357e-14 -7.226244219e-14)
(0 -1.703257636e-14 -6.480829358e-14)
(0 -1.144774431e-14 -5.768570055e-14)
(0 -7.310091185e-15 -5.107650976e-14)
(0 -4.288695132e-15 -4.506166713e-14)
(0 -2.117255432e-15 -3.965946769e-14)
(0 -5.861212246e-16 -3.485132851e-14)
(0 4.672189672e-16 -3.059860808e-14)
(0 1.167303953e-15 -2.685325284e-14)
(0 1.608733224e-15 -2.356431048e-14)
(0 1.862846364e-15 -2.068174175e-14)
(0 1.983100234e-15 -1.81585056e-14)
(0 2.009307717e-15 -1.59515667e-14)
(0 1.970931831e-15 -1.402224979e-14)
(0 1.889620652e-15 -1.233621335e-14)
(0 1.781144445e-15 -1.086321496e-14)
(0 1.656868526e-15 -9.576774938e-15)
(0 1.52486891e-15 -8.453802535e-15)
(0 1.390774823e-15 -7.474222042e-15)
(0 1.258403327e-15 -6.620619375e-15)
(0 1.130236159e-15 -5.877919216e-15)
(0 1.007777065e-15 -5.233096647e-15)
(0 8.91818778e-16 -4.674923573e-15)
(0 7.826417288e-16 -4.193748306e-15)
(0 6.80161245e-16 -3.781305718e-15)
(0 5.840359266e-16 -3.430555023e-15)
(0 4.93746794e-16 -3.135542281e-15)
(0 4.086544846e-16 -2.89128487e-15)
(0 3.280400145e-16 -2.693675507e-15)
(0 2.511333023e-16 -2.539403702e-15)
(0 1.77132665e-16 -2.425892883e-15)
(0 1.052170476e-16 -2.351251755e-15)
(0 3.483846288e-17 -2.314238775e-15)
(0 0.3042223488 0.02004058672)
(0 0.296481302 0.06118332641)
(0 0.2820377493 0.1128360144)
(0 0.2960483708 0.2134514267)
(0 0.1700687914 -0.1262752172)
(0 -0.6666888526 -1.362182768)
(0 -1.053271347 -2.278273981)
(0 -0.0299007359 -1.339023268)
(0 -1.092077446e-13 -1.101231499e-14)
(0 -2.083100176e-13 -5.938466414e-14)
(0 -1.766274312e-13 -9.531670586e-14)
(0 -1.413181397e-13 -1.141303976e-13)
(0 -1.080221084e-13 -1.201745061e-13)
(0 -7.957471086e-14 -1.178885259e-13)
(0 -5.667495229e-14 -1.107680731e-13)
(0 -3.895881551e-14 -1.012460852e-13)
(0 -2.564265544e-14 -9.088284952e-14)
(0 -1.586114832e-14 -8.060967137e-14)
(0 -8.821436286e-15 -7.093735064e-14)
(0 -3.858115509e-15 -6.211037225e-14)
(0 -4.398043732e-16 -5.421252474e-14)
(0 1.84492629e-15 -4.723576136e-14)
(0 3.308165631e-15 -4.112343575e-14)
(0 4.183282268e-15 -3.579653065e-14)
(0 4.6429416e-15 -3.1168978e-14)
(0 4.813821723e-15 -2.715616934e-14)
(0 4.78817514e-15 -2.367932203e-14)
(0 4.632696802e-15 -2.066739225e-14)
(0 4.395221751e-15 -1.805758666e-14)
(0 4.109732442e-15 -1.579511444e-14)
(0 3.800077141e-15 -1.383256309e-14)
(0 3.482718593e-15 -1.212912119e-14)
(0 3.168759436e-15 -1.064977325e-14)
(0 2.865431127e-15 -9.364532752e-15)
(0 2.577186268e-15 -8.247744763e-15)
(0 2.306498315e-15 -7.277469678e-15)
(0 2.054445619e-15 -6.434948449e-15)
(0 1.821136589e-15 -5.704144258e-15)
(0 1.606017818e-15 -5.071352998e-15)
(0 1.408096026e-15 -4.524874213e-15)
(0 1.226096527e-15 -4.054734379e-15)
(0 1.058574987e-15 -3.652455089e-15)
(0 9.039948174e-16 -3.310859589e-15)
(0 7.607793462e-16 -3.023912045e-15)
(0 6.273454901e-16 -2.786584792e-15)
(0 5.021239297e-16 -2.594749629e-15)
(0 3.835694748e-16 -2.445089941e-15)