/*--------------------------------*- C++ -*----------------------------------*\
  =========                 |
  \\      /  F ield         | OpenFOAM: The Open Source CFD Toolbox
   \\    /   O peration     | Website:  https://openfoam.org
    \\  /    A nd           | Version:  6
     \\/     M anipulation  |
\*---------------------------------------------------------------------------*/
FoamFile
{
    version     2.0;
    format      ascii;
    class       volScalarField;
    location    "0.08";
    object      ViscousDissipation;
}
// * * * * * * * * * * * * * * * * * * * * * * * * * * * * * * * * * * * * * //

dimensions      [1 -1 -3 0 0 0 0];

internalField   nonuniform List<scalar> 
2500
(
20.12798966
13.70309833
1.081846708
0.03799092697
0.4439679906
0.7079333443
0.2736688162
0.007960485669
0.003871807788
2.154951733e-24
2.280774299e-26
4.522586732e-26
7.317092173e-26
1.024374976e-25
1.298167527e-25
1.527388386e-25
1.695242987e-25
1.794342851e-25
1.825621774e-25
1.796290063e-25
1.717456498e-25
1.601907238e-25
1.462334918e-25
1.31012819e-25
1.154698179e-25
1.003242004e-25
8.608159252e-26
7.305959139e-26
6.142261546e-26
5.121843142e-26
4.241190418e-26
3.491365563e-26
2.860284137e-26
2.334421903e-26
1.900020577e-26
1.543883754e-26
1.253856196e-26
1.019070694e-26
8.300329887e-27
6.786003889e-27
5.578959638e-27
4.62188516e-27
3.867591576e-27
3.277681939e-27
2.821308365e-27
2.474067433e-27
2.217063809e-27
2.036173164e-27
1.921598246e-27
1.98723413e-27
3.827194883
5.101108085
1.298951779
0.1774247627
0.1247425716
0.1670857368
0.112594486
0.03157497449
0.01982486536
2.198691092e-24
3.407190111e-26
5.624105389e-26
8.39126843e-26
1.127667353e-25
1.395639992e-25
1.61739411e-25
1.776460503e-25
1.865944661e-25
1.887327878e-25
1.848326246e-25
1.760451106e-25
1.63676166e-25
1.490095989e-25
1.331880402e-25
1.171483667e-25
1.016008905e-25
8.703912237e-26
7.376769822e-26
6.193850229e-26
5.158795155e-26
4.267110775e-26
3.509042435e-26
2.871844136e-26
2.341468055e-26
1.903749319e-26
1.545180766e-26
1.253372788e-26
1.017283405e-26
8.272892651e-27
6.751530856e-27
5.539290907e-27
4.578362471e-27
3.821197309e-27
3.22913948e-27
2.77115245e-27
2.422687419e-27
2.164708987e-27
1.982856999e-27
1.86780912e-27
2.886077136e-27
1.110366753
4.153219962
3.445579298
0.9151355311
0.07058642611
0.01686854126
0.06415569586
0.03829595622
0.0004180103922
2.289929108e-24
5.785625989e-26
7.960765356e-26
1.06670585e-25
1.345713446e-25
1.600468554e-25
1.80562473e-25
1.945501629e-25
2.014285267e-25
2.01460625e-25
1.955213817e-25
1.84842073e-25
1.707811767e-25
1.546486535e-25
1.375914672e-25
1.205349874e-25
1.041680847e-25
8.89578822e-26
7.518141645e-26
6.29642513e-26
5.231920049e-26
4.318108582e-26
3.543559132e-26
2.894173758e-26
2.35483869e-26
1.910563953e-26
1.547213477e-26
1.251924484e-26
1.013302906e-26
8.214658347e-27
6.679861637e-27
5.457802188e-27
4.489673545e-27
3.727211238e-27
3.131246176e-27
2.670374982e-27
2.319787237e-27
2.060265954e-27
1.877361689e-27
1.761661185e-27
4.630389732e-27
0.1097277618
2.273433762
4.61025323
2.385582316
0.4292013956
0.02388205488
0.05535029311
0.02776166483
0.01192637738
2.43374409e-24
9.755011075e-26
1.18473567e-25
1.443005369e-25
1.703681907e-25
1.934132553e-25
2.109830547e-25
2.216582406e-25
2.250411798e-25
2.215797405e-25
2.12307916e-25
1.985749307e-25
1.818117567e-25
1.633592477e-25
1.443621355e-25
1.257204339e-25
1.080839328e-25
9.187460564e-26
7.732381743e-26
6.451449906e-26
5.342181088e-26
4.394865806e-26
3.595452157e-26
2.927745412e-26
2.374988802e-26
1.920927211e-26
1.550464574e-26
1.250018655e-26
1.007661842e-26
8.131191014e-27
6.576773315e-27
5.340456267e-27
4.361940212e-27
3.591890016e-27
2.990372463e-27
2.525441861e-27
2.171906944e-27
1.910291378e-27
1.725987241e-27
1.609447309e-27
7.116070734e-27
0.1131201449
0.6595506725
4.524525866
4.689738789
1.387504681
0.06240213713
0.04650576752
0.01675184557
0.03711824166
2.643461112e-24
1.591827332e-25
1.783934483e-25
2.017822964e-25
2.244814043e-25
2.43300163e-25
2.559650816e-25
2.613125859e-25
2.592295555e-25
2.504306418e-25
2.361657026e-25
2.179328776e-25
1.972442036e-25
1.754630965e-25
1.537127031e-25
1.328424989e-25
1.134361838e-25
9.584447652e-26
8.022948712e-26
6.661121249e-26
5.491031304e-26
4.4984195e-26
3.665543799e-26
2.973286018e-26
2.402617738e-26
1.935547018e-26
1.555667893e-26
1.248421599e-26
1.001159687e-26
8.030795035e-27
6.450845262e-27
5.196069444e-27
4.204178798e-27
3.424416157e-27
2.815836409e-27
2.345777732e-27
1.988546215e-27
1.72431799e-27
1.538250818e-27
1.420583849e-27
1.019561366e-26
0.8865516926
0.1245829195
2.867845085
6.002378952
3.56410542
0.384339876
0.02264744778
0.009597790269
0.08000620558
2.938077158e-24
2.529246551e-25
2.685634878e-25
2.872132955e-25
3.038159392e-25
3.154083774e-25
3.200681493e-25
3.170499439e-25
3.066577309e-25
2.899647734e-25
2.684865832e-25
2.438835493e-25
2.177347421e-25
1.913944835e-25
1.659236117e-25
1.420777981e-25
1.203332204e-25
1.009322589e-25
8.393614427e-26
6.927594149e-26
5.679704379e-26
4.629514864e-26
3.754351874e-26
3.031237586e-26
2.438175178e-26
1.954923011e-26
1.563391201e-26
1.247773854e-26
9.945072296e-27
7.921221274e-27
6.310398604e-27
5.033458316e-27
4.025629939e-27
3.234388346e-27
2.617534405e-27
2.141521118e-27
1.780033782e-27
1.512817422e-27
1.324734998e-27
1.205762721e-27
1.36848407e-26
2.107124032
1.40135992
0.7770504574
5.432381119
6.589189979
1.492607526
0.006315500716
0.006940495582
0.1693893973
3.346379029e-24
3.954701737e-25
4.039160424e-25
4.135068063e-25
4.191582641e-25
4.184493468e-25
4.101046168e-25
3.940373623e-25
3.711336083e-25
3.429132486e-25
3.111796295e-25
2.77728986e-25
2.441505012e-25
2.117175198e-25
1.813533286e-25
1.536487465e-25
1.289097157e-25
1.072175394e-25
8.848981433e-26
7.253499297e-26
5.909727147e-26
4.789104419e-26
3.862567482e-26
3.102207311e-26
2.482279487e-26
1.97973103e-26
1.574386281e-26
1.248906484e-26
9.886105042e-27
7.812203021e-27
6.165752286e-27
4.863441541e-27
3.837532705e-27
3.033395122e-27
2.407341775e-27
1.924778859e-27
1.558659411e-27
1.288220767e-27
1.097979566e-27
9.776071416e-28
1.737371005e-26
3.053614218
4.192321784
0.07234803252
2.901396148
8.185468236
4.10552421
0.2015464834
0.003008266399
0.2979562383
3.913991487e-24
6.146333175e-25
6.088417861e-25
6.012971859e-25
5.873242701e-25
5.656503141e-25
5.36141894e-25
4.997074809e-25
4.579919795e-25
4.130057044e-25
3.667884576e-25
3.211633531e-25
2.775942128e-25
2.371337847e-25
2.00438011e-25
1.678200956e-25
1.393224324e-25
1.147908255e-25
9.394156902e-26
7.641683322e-26
6.182715658e-26
4.978186419e-26
3.990923417e-26
3.186856125e-26
2.535619126e-26
2.010732304e-26
1.589502513e-26
1.252756877e-26
9.844874816e-27
7.714623857e-27
6.028387731e-27
4.697999368e-27
3.652278461e-27
2.834163331e-27
2.198256383e-27
1.708765078e-27
1.33780698e-27
1.064042221e-27
8.715954149e-28
7.497946152e-28
2.103845424e-26
2.904650174
6.578587046
2.085742615
0.3745894685
6.672186304
7.702078947
1.189627591
0.001099781883
0.424517556
4.712532514e-24
9.574951618e-25
9.237965846e-25
8.839570361e-25
8.347289585e-25
7.771484649e-25
7.130243466e-25
6.446777322e-25
5.746214075e-25
5.05255187e-25
4.386344524e-25
3.763377092e-25
3.194282619e-25
2.684870059e-25
2.236881889e-25
1.848932417e-25
1.517446435e-25
1.237489653e-25
1.00344088e-25
8.094963407e-26
6.500204353e-26
5.197685895e-26
4.1401088e-26
3.285833466e-26
2.598898265e-26
2.048723808e-26
1.609638133e-26
1.260318675e-26
9.832154447e-27
7.639960505e-27
5.910359393e-27
4.549652925e-27
3.48276129e-27
2.649882712e-27
2.003700577e-27
1.507083456e-27
1.131219643e-27
8.541298736e-28
6.595063031e-28
5.362993536e-28
2.44547145e-26
1.666566954
6.083712748
5.741938367
0.5477715847
2.988690317
10.25471603
3.586426034
0.04092984473
0.2840262346
5.866287982e-24
1.505537154e-24
1.417343608e-24
1.316447743e-24
1.203381903e-24
1.083797592e-24
9.62658891e-25
8.440511116e-25
7.311634525e-25
6.26309165e-25
5.309769863e-25
4.459220283e-25
3.712901166e-25
3.067590187e-25
2.516785172e-25
2.051956195e-25
1.663572958e-25
1.34188503e-25
1.077469462e-25
8.615804109e-26
6.863427295e-26
5.448305089e-26
4.310662905e-26
3.399696682e-26
2.672770049e-26
2.094477984e-26
1.635681965e-26
1.272582939e-26
9.858702509e-27
7.599650286e-27
5.823635331e-27
4.430778688e-27
3.341668405e-27
2.493474902e-27
1.836771572e-27
1.332961705e-27
9.522210723e-28
6.718766341e-28
4.75153143e-28
3.505938161e-28
2.741101054e-26
0.2117388614
2.832086186
7.657314858
4.13193512
0.2100256794
8.955775158
7.241697442
0.4281808096
0.137171857
7.51026587e-24
2.399010099e-24
2.20911524e-24
1.991440172e-24
1.761080039e-24
1.533203999e-24
1.317395108e-24
1.119204828e-24
9.413987577e-25
7.848510086e-25
6.491702145e-25
5.331478097e-25
4.350877101e-25
3.530499077e-25
2.850264767e-25
2.290629016e-25
1.833356993e-25
1.461963258e-25
1.16190279e-25
9.205896073e-26
7.273038031e-26
5.730333165e-26
4.50283978e-26
3.528807814e-26
2.757751204e-26
2.14866646e-26
1.668441113e-26
1.290466949e-26
9.934547058e-27
7.604363407e-27
5.779355395e-27
4.35285235e-27
3.240710739e-27
2.376812278e-27
1.709450243e-27
1.198452004e-27
8.129091816e-28
5.294089317e-28
3.306794591e-28
2.048324389e-28
2.972179109e-26
0.00247084097
0.5671609281
5.643633885
8.573355076
1.07903835
4.588447041
10.36587714
1.853964297
1.286944546
1.012960576e-23
3.928357238e-24
3.52166163e-24
3.069884106e-24
2.618805601e-24
2.199167177e-24
1.824884748e-24
1.500139293e-24
1.223789702e-24
9.92002366e-25
7.997751025e-25
6.418032724e-25
5.129578513e-25
4.085328897e-25
3.243550908e-25
2.568115793e-25
2.028306182e-25
1.598371169e-25
1.256966323e-25
9.865629774e-26
7.728765946e-26
6.043414604e-26
4.716443577e-26
3.673207857e-26
2.854118349e-26
2.211768451e-26
1.708555752e-26
1.314732196e-26
1.00681807e-26
7.663204523e-27
5.787035247e-27
4.325653676e-27
3.189828152e-27
2.309923556e-27
1.631807282e-27
1.11363788e-27
7.233638511e-28
4.367953791e-28
2.361409987e-28
1.090620131e-28
3.123928123e-26
0.004928342448
0.02852690902
2.278589902
9.925986277
5.907411873
0.7262663369
11.71006071
5.137882531
20.62390312
1.469284381e-23
6.757169437e-24
5.790523208e-24
4.837733481e-24
3.959639519e-24
3.195907144e-24
2.554709445e-24
2.028325183e-24
1.602548011e-24
1.26161557e-24
9.90553049e-25
7.761380158e-25
6.071645467e-25
4.743724288e-25
3.702343349e-25
2.886996724e-25
2.249429356e-25
1.751373887e-25
1.362609962e-25
1.059347065e-25
8.229016133e-26
6.386282325e-26
4.950639504e-26
3.832472717e-26
2.961789853e-26
2.283967622e-26
1.756404869e-26
1.345895627e-26
1.026570945e-26
7.782887937e-27
5.853762267e-27
4.356479754e-27
3.196417781e-27
2.300235447e-27
1.611256563e-27
1.085897717e-27
6.909190191e-28
4.013258433e-28
1.987901361e-28
7.05096792e-29
3.186335985e-26
0.01948936206
0.01974985891
0.4327406158
6.985321484
12.09245059
1.045852928
10.5818612
11.09390342
160.6630772
2.212163282e-23
1.209509429e-23
9.81622107e-24
7.792941345e-24
6.082115216e-24
4.697843659e-24
3.606594267e-24
2.759660381e-24
2.108404813e-24
1.610248187e-24
1.230224212e-24
9.406174641e-25
7.199092031e-25
5.51593546e-25
4.230966721e-25
3.248742061e-25
2.496917528e-25
1.920663388e-25
1.478393212e-25
1.138526119e-25
8.770432248e-26
6.756469998e-26
5.203751452e-26
4.005559755e-26
3.080200915e-26
2.365044404e-26
1.81200959e-26
1.384140545e-26
1.053001822e-26
7.966948286e-27
5.983444234e-27
4.44942658e-27
3.264644436e-27
2.351908279e-27
1.651912623e-27
1.119280859e-27
7.195542425e-28
4.26915341e-28
2.224890101e-28
9.30022008e-29
3.154876752e-26
0.04222501184
0.07119152069
0.04448968985
2.639464315
15.19653426
7.902504444
6.671557742
19.61157678
751.0079841
3.5640608e-23
2.243156945e-23
1.710743937e-23
1.280184223e-23
9.467092085e-24
6.965725889e-24
5.119214547e-24
3.766559119e-24
2.778455172e-24
2.056481292e-24
1.52782766e-24
1.139455948e-24
8.530248821e-25
6.408931991e-25
4.831248678e-25
3.653060094e-25
2.769769961e-25
2.105144941e-25
1.603362427e-25
1.22335006e-25
9.34745724e-26
7.150028102e-26
5.473064407e-26
4.190659124e-26
3.208183686e-26
2.454274089e-26
1.874943436e-26
1.429235815e-26
1.086003394e-26
8.215063001e-27
6.176183025e-27
4.604807559e-27
3.394898356e-27
2.465327927e-27
1.754111991e-27
1.214053778e-27
8.094612928e-28
5.13686814e-28
3.073043319e-28
1.765687214e-28
3.030906496e-26
0.06822557256
0.09392041475
0.1611071194
0.1881145646
11.28914062
20.05076067
2.300294153
27.89297069
2451.56624
6.385935397e-23
4.388276559e-23
3.070718089e-23
2.13918005e-23
1.487723406e-23
1.037632824e-23
7.276182934e-24
5.137042808e-24
3.654003409e-24
2.61910582e-24
1.891495017e-24
1.375863702e-24
1.007537863e-24
7.423932144e-25
5.501156946e-25
4.097155484e-25
3.065393449e-25
2.302720534e-25
1.735932489e-25
1.312668144e-25
9.951943788e-26
7.561278962e-26
5.754656981e-26
4.385069264e-26
3.343868081e-26
2.550343954e-26
1.94426106e-26
1.48047367e-26
1.125017904e-26
8.522571078e-27
6.427850666e-27
4.818780009e-27
3.583465943e-27
2.636814951e-27
1.914155206e-27
1.366469701e-27
9.568363973e-28
6.577811782e-28
4.493306255e-28
3.172726877e-28
2.821693517e-26
0.08615427717
0.0949086024
0.1857210404
0.1904679804
3.665737755
27.7349334
4.972369964
30.15711743
5971.903868
1.257340277e-22
8.956385015e-23
5.635151867e-23
3.612264923e-23
2.34558998e-23
1.543708287e-23
1.03001112e-23
6.966905816e-24
4.774893573e-24
3.313659461e-24
2.326492759e-24
1.650986275e-24
1.183107948e-24
8.5535015e-25
6.233314915e-25
4.574977333e-25
3.379223975e-25
2.51009881e-25
1.873790587e-25
1.404879035e-25
1.057288172e-25
7.982655201e-26
6.043295228e-26
4.58511981e-26
3.484621612e-26
2.651304427e-26
2.018458151e-26
1.536637024e-26
1.169011048e-26
8.880271525e-27
6.729941317e-27
5.083244934e-27
3.822471664e-27
2.858603101e-27
2.124316601e-27
1.568804611e-27
1.153937614e-27
8.514314838e-28
6.407767851e-28
5.07306544e-28
2.540064223e-26
0.08730345635
0.09593963363
0.1114418956
0.3210549225
0.1239416602
19.38390574
20.59287061
22.47109001
11264.46766
2.490780845e-22
1.862144793e-22
1.041656474e-22
6.092829604e-23
3.673902261e-23
2.274530279e-23
1.4419478e-23
9.339968481e-24
6.168954946e-24
4.147061161e-24
2.832565982e-24
1.962610891e-24
1.377406319e-24
9.778597451e-25
7.013617443e-25
5.076582418e-25
3.704440553e-25
2.722670367e-25
2.013844001e-25
1.497910001e-25
1.119631953e-25
8.404671135e-26
6.332421644e-26
4.786166547e-26
3.627047037e-26
2.754569229e-26
2.095474652e-26
1.596006335e-26
1.216482801e-26
9.274571724e-27
7.069758263e-27
5.386069821e-27
4.10013307e-27
3.119122643e-27
2.373151951e-27
1.809685286e-27
1.389429503e-27
1.083320627e-27
8.70333404e-28
7.353653519e-28
2.203671549e-26
0.07886774562
0.09095360473
0.07681040938
0.1912529303
0.2013073163
6.964708169
37.5253691
9.046646957
16892.54522
4.383919185e-22
3.813269591e-22
1.893406429e-22
1.007624498e-22
5.63539294e-23
3.282695735e-23
1.979256386e-23
1.229374205e-23
7.836728416e-24
5.110845855e-24
3.400950423e-24
2.303855152e-24
1.585547793e-24
1.106617199e-24
7.820263201e-25
5.587776392e-25
4.031855412e-25
2.934492468e-25
2.152235501e-25
1.589238366e-25
1.180555677e-25
8.816074744e-26
6.61427084e-26
4.982680465e-26
3.767054038e-26
2.856976748e-26
2.172750747e-26
1.65641337e-26
1.26552087e-26
9.688029662e-27
7.430969145e-27
5.711658885e-27
4.401346143e-27
3.403599796e-27
2.646110415e-27
2.074711937e-27
1.649014575e-27
1.339219743e-27
1.123816294e-27
9.872936458e-28
1.833920205e-26
0.06734400239
0.07734175946
0.08048366321
0.1097592533
0.4310125041
1.099602987
42.09987973
0.5436362017
20352.46777
8.512266505e-22
7.292984752e-22
3.257879587e-22
1.591921644e-22
8.315882747e-23
4.582832239e-23
2.639410002e-23
1.577648451e-23
9.734798546e-24
6.174615276e-24
4.011809273e-24
2.662190246e-24
1.799742182e-24
1.23681092e-24
8.623572448e-25
6.09020973e-25
4.350066201e-25
3.138425386e-25
2.284447706e-25
1.675966396e-25
1.238166884e-25
9.204216193e-26
6.880134231e-26
5.168445551e-26
3.9000148e-26
2.954919415e-26
2.247340162e-26
1.715344744e-26
1.313898368e-26
1.010029561e-26
7.794526841e-27
6.04186166e-27
4.708586587e-27
3.694953648e-27
2.926428794e-27
2.3473508e-27
1.916324791e-27
1.602878976e-27
1.385056781e-27
1.246975387e-27
1.454610175e-26
0.05330986011
0.05927698185
0.08222140683
0.0719707893
0.2991388919
0.4945734339
33.37104795
3.126381086
19491.04158
2.255231735e-21
1.220711512e-21
5.099760082e-22
2.34421553e-22
1.161713312e-22
6.119845641e-23
3.391337604e-23
1.96127983e-23
1.176400593e-23
7.282125521e-24
4.633076493e-24
3.019212505e-24
2.009343844e-24
1.362228415e-24
9.386938652e-25
6.562083248e-25
4.645939078e-25
3.326451066e-25
2.40551011e-25
1.754955817e-25
1.290439251e-25
9.555645995e-26
7.120779598e-26
5.336867425e-26
4.021003477e-26
3.044539654e-26
2.316078366e-26
1.770092103e-26
1.359211994e-26
1.048941177e-26
8.139911104e-27
6.357172337e-27
5.003077441e-27
3.974939416e-27
3.196255791e-27
2.610043488e-27
2.174019324e-27
1.85711642e-27
1.636984256e-27
1.497412321e-27
1.090384245e-26
0.03713187659
0.04203682517
0.0676490941
0.07319390938
0.1199162198
1.306323013
23.40675497
11.86635377
15320.41037
4.742615827e-21
1.765716105e-21
7.174721507e-22
3.184261006e-22
1.522927438e-22
7.759554971e-23
4.172415182e-23
2.349568784e-23
1.376860515e-23
8.352275864e-24
5.22160283e-24
3.351527538e-24
2.201448107e-24
1.475634349e-24
1.006914963e-24
6.979551069e-25
4.905452306e-25
3.490181793e-25
2.510308934e-25
1.823019959e-25
1.335334954e-25
9.85692249e-26
7.327008361e-26
5.481378292e-26
4.125106903e-26
3.121981069e-26
2.375795214e-26
1.817939058e-26
1.399051283e-26
1.083337887e-26
8.446602619e-27
6.638133843e-27
5.266139001e-27
4.225455743e-27
3.43792549e-27
2.845453654e-27
2.405010174e-27
2.08502767e-27
1.862824089e-27
1.721914266e-27
7.650843978e-27
0.02110104022
0.02767680671
0.04567169023
0.0960658591
0.0451435632
2.117372848
14.34669217
22.55657321
9543.99861
6.169912726e-21
2.280529892e-21
9.172225283e-22
3.99585358e-22
1.868623767e-22
9.30353727e-23
4.893925626e-23
2.701219462e-23
1.554974353e-23
9.286453306e-24
5.727186786e-24
3.632962973e-24
2.362106465e-24
1.569439775e-24
1.062809396e-24
7.318791104e-25
5.114866635e-25
3.621532217e-25
2.593980942e-25
1.877160711e-25
1.370952095e-25
1.009556817e-25
7.490307062e-26
5.595905425e-26
4.207780584e-26
3.183673373e-26
2.423553559e-26
1.856368572e-26
1.431184166e-26
1.111185411e-26
8.69566328e-27
6.866828015e-27
5.480608542e-27
4.429908625e-27
3.635276805e-27
3.037751081e-27
2.593718506e-27
2.271220966e-27
2.047317421e-27
1.90530888e-27
5.001334859e-27
0.00834180417
0.01696606689
0.02558705392
0.1135842237
0.07396683787
2.367603987
7.687007263
32.26056504
3943.820414
5.215561829e-21
2.686010925e-21
1.07605472e-21
4.645061801e-22
2.14379794e-22
1.051937513e-22
5.454463451e-23
2.970527017e-23
1.689481565e-23
9.982739476e-24
6.099564272e-24
3.838059843e-24
2.478096937e-24
1.636613788e-24
1.102553259e-24
7.558546672e-25
5.262105691e-25
3.713485904e-25
2.652350433e-25
1.91482562e-25
1.395681874e-25
1.026107517e-25
7.603524923e-26
5.675354007e-26
4.265212601e-26
3.226621265e-26
2.456889111e-26
1.883269591e-26
1.453740249e-26
1.130781372e-26
8.871271094e-27
7.028312176e-27
5.632199793e-27
4.574509656e-27
3.774902902e-27
3.173822268e-27
2.727254776e-27
2.402974063e-27
2.177861207e-27
2.035070722e-27
3.130610045e-27
0.001430308296
0.01119316562
0.01508084465
0.1148426281
0.1536780163
2.210905438
5.963383948
37.10814814
482.0375831
3.612226082e-21
2.907991378e-21
1.163977149e-21
5.007216946e-22
2.297085426e-22
1.11926098e-22
5.762337672e-23
3.117149542e-23
1.762081413e-23
1.035552014e-23
6.297464442e-24
3.946344554e-24
2.538983138e-24
1.671697756e-24
1.123220577e-24
7.682757173e-25
5.338144172e-25
3.760847559e-25
2.682349304e-25
1.934150881e-25
1.408355091e-25
1.034583219e-25
7.661492979e-26
5.716045084e-26
4.294651457e-26
3.24866298e-26
2.474023717e-26
1.897119572e-26
1.465371638e-26
1.140900285e-26
8.962050708e-27
7.111857662e-27
5.710669189e-27
4.649384899e-27
3.847214283e-27
3.244297147e-27
2.79641692e-27
2.471210685e-27
2.245468935e-27
2.102271727e-27
2.162841869e-27
0.001430313225
0.01119316725
0.01508084808
0.1148426021
0.1536779224
2.210905741
5.963383957
37.10814847
482.0377111
3.612225973e-21
2.907991274e-21
1.163977099e-21
5.007216852e-22
2.297085485e-22
1.119261072e-22
5.762338481e-23
3.117150156e-23
1.762081851e-23
1.035552318e-23
6.297466542e-24
3.946346005e-24
2.538984149e-24
1.671698469e-24
1.123221086e-24
7.682760858e-25
5.338146875e-25
3.760849565e-25
2.682350809e-25
1.93415202e-25
1.408355958e-25
1.034583882e-25
7.661498065e-26
5.716048979e-26
4.294654428e-26
3.24866523e-26
2.474025399e-26
1.897120803e-26
1.465372512e-26
1.140900874e-26
8.962054327e-27
7.111859464e-27
5.710669541e-27
4.649384098e-27
3.847212571e-27
3.244294722e-27
2.796413947e-27
2.471207305e-27
2.245465267e-27
2.102267925e-27
2.162382604e-27
0.008341812538
0.01696606603
0.02558705316
0.1135841237
0.07396670017
2.367604142
7.687003201
32.26054849
3943.820734
5.215561708e-21
2.686010528e-21
1.076054539e-21
4.645061416e-22
2.143798079e-22
1.051937767e-22
5.454465764e-23
2.970528792e-23
1.689482838e-23
9.982748354e-24
6.099570409e-24
3.838064093e-24
2.478099903e-24
1.636615883e-24
1.102554758e-24
7.558557537e-25
5.262113675e-25
3.713491841e-25
2.652354894e-25
1.914829001e-25
1.395684453e-25
1.026109493e-25
7.603540088e-26
5.675365638e-26
4.265221488e-26
3.226628004e-26
2.456894158e-26
1.883273297e-26
1.453742888e-26
1.13078316e-26
8.871282161e-27
7.028317802e-27
5.632201072e-27
4.574507476e-27
3.774897985e-27
3.173815208e-27
2.727246069e-27
2.402964127e-27
2.177850402e-27
2.035059514e-27
3.129237584e-27
0.02110103541
0.02767678717
0.04567163934
0.0960656718
0.04514351549
2.117371511
14.34667349
22.55657342
9543.994179
6.169912566e-21
2.280528857e-21
9.172221309e-22
3.995852685e-22
1.868623898e-22
9.303540957e-23
4.893929147e-23
2.701222212e-23
1.554976345e-23
9.286467284e-24
5.727196495e-24
3.632969724e-24
2.362111194e-24
1.569443126e-24
1.062811802e-24
7.318808609e-25
5.114879541e-25
3.621541846e-25
2.593988201e-25
1.877166229e-25
1.370956317e-25
1.009560061e-25
7.490332031e-26
5.595924631e-26
4.207795303e-26
3.183684571e-26
2.423561976e-26
1.856374781e-26
1.431188614e-26
1.111188452e-26
8.695682413e-27
6.866838112e-27
5.480611409e-27
4.429905724e-27
3.635269333e-27
3.037740023e-27
2.593704686e-27
2.271205082e-27
2.047300075e-27
1.905290846e-27
4.999065194e-27
0.03713184417
0.04203676936
0.06764894483
0.07319365773
0.1199153314
1.306317269
23.40678935
11.86628766
15320.41628
4.742605333e-21
1.765713694e-21
7.17471477e-22
3.184259537e-22
1.522927507e-22
7.759559299e-23
4.172419538e-23
2.349572258e-23
1.376863062e-23
8.352293883e-24
5.221615424e-24
3.351536342e-24
2.201454306e-24
1.475638764e-24
1.006918148e-24
6.979574368e-25
4.905469571e-25
3.490194739e-25
2.510318739e-25
1.823027448e-25
1.335340709e-25
9.856966895e-26
7.327042686e-26
5.481404808e-26
4.125127314e-26
3.121996672e-26
2.375807007e-26
1.817947816e-26
1.399057612e-26
1.08334227e-26
8.446630802e-27
6.638149454e-27
5.26614452e-27
4.225453189e-27
3.437916516e-27
2.845439633e-27
2.404992252e-27
2.085006826e-27
1.862801172e-27
1.721890355e-27
7.647703715e-27
0.0533098068
0.05927689543
0.0822212142
0.07197042206
0.2991363299
0.4945708448
33.37097806
3.126396796
19490.98992
2.255226074e-21
1.220708601e-21
5.099752867e-22
2.34421391e-22
1.161713348e-22
6.119850258e-23
3.391342444e-23
1.961283769e-23
1.176403516e-23
7.282146382e-24
4.633091171e-24
3.019222828e-24
2.009351157e-24
1.362233656e-24
9.386976714e-25
6.562111274e-25
4.645959984e-25
3.326466844e-25
2.405522136e-25
1.754965057e-25
1.290446394e-25
9.555701415e-26
7.120822675e-26
5.336900886e-26
4.021029383e-26
3.044559581e-26
2.316093534e-26
1.770103462e-26
1.359220296e-26
1.048947015e-26
8.139949629e-27
6.357194837e-27
5.003087029e-27
3.974938633e-27
3.196246733e-27
2.610027896e-27
2.173998666e-27
1.857091953e-27
1.63695708e-27
1.497383816e-27
1.089986873e-26
0.06734395804
0.0773416938
0.08048357192
0.1097588554
0.4310117558
1.099588028
42.09988016
0.5436144757
20352.49235
8.512251646e-22
7.292973085e-22
3.257874553e-22
1.591920205e-22
8.315882928e-23
4.582836872e-23
2.639415047e-23
1.577652634e-23
9.734829906e-24
6.174637809e-24
4.01182522e-24
2.662201528e-24
1.799750228e-24
1.236816728e-24
8.623614959e-25
6.090241285e-25
4.350089932e-25
3.13844344e-25
2.284461574e-25
1.675977131e-25
1.23817524e-25
9.204281482e-26
6.88018532e-26
5.168485504e-26
3.900045947e-26
2.954943552e-26
2.247358689e-26
1.715358758e-26
1.31390874e-26
1.010036986e-26
7.794577221e-27
6.041892686e-27
4.708601943e-27
3.69495636e-27
2.926421369e-27
2.347335334e-27
1.916303065e-27
1.602852523e-27
1.385026955e-27
1.24694386e-27
1.454134214e-26
0.07886773634
0.09095361679
0.07681045085
0.1912531691
0.2013088985
6.96468634
37.52540435
9.046638128
16892.56252
4.38390794e-22
3.813257958e-22
1.893401799e-22
1.007623058e-22
5.635392707e-23
3.282700252e-23
1.979261484e-23
1.229378479e-23
7.836760602e-24
5.110869046e-24
3.400966892e-24
2.303866861e-24
1.585556198e-24
1.106623315e-24
7.820308368e-25
5.587810239e-25
4.031881113e-25
2.934512206e-25
2.152250802e-25
1.589250314e-25
1.180565056e-25
8.816148607e-26
6.614329091e-26
4.982726373e-26
3.767090114e-26
2.857004944e-26
2.172772595e-26
1.656430081e-26
1.265533412e-26
9.688121169e-27
7.431033019e-27
5.71170024e-27
4.401369167e-27
3.403607949e-27
2.646106579e-27
2.074698542e-27
1.648993697e-27
1.33919319e-27
1.123785675e-27
9.872609099e-28
1.833371434e-26
0.08730347556
0.09593970918
0.1114420981
0.3210557348
0.1239414196
19.38389231
20.59287901
22.47108333
11264.48243
2.490772764e-22
1.862139302e-22
1.041652629e-22
6.09281528e-23
3.673901838e-23
2.274534819e-23
1.441952949e-23
9.340011386e-24
6.168987035e-24
4.147084186e-24
2.832582325e-24
1.962622548e-24
1.377414741e-24
9.778659266e-25
7.013663567e-25
5.076617364e-25
3.704467385e-25
2.7226912e-25
2.01386032e-25
1.497922872e-25
1.119642151e-25
8.404752184e-26
6.332486124e-26
4.786217807e-26
3.627087677e-26
2.754601291e-26
2.095499752e-26
1.596025767e-26
1.216497601e-26
9.274681819e-27
7.069837289e-27
5.386123377e-27
4.100165771e-27
3.119138321e-27
2.373153821e-27
1.809676079e-27
1.389411575e-27
1.08329605e-27
8.703040377e-28
7.353334064e-28
2.203056747e-26
0.08615427638
0.09490868176
0.1857213801
0.1904681024
3.665743257
27.73492401
4.972378658
30.15712391
5971.912408
1.257347756e-22
8.956342025e-23
5.635109414e-23
3.612249419e-23
2.345589932e-23
1.543713267e-23
1.030016447e-23
6.966948677e-24
4.774924907e-24
3.313681651e-24
2.326508431e-24
1.650997471e-24
1.183116088e-24
8.553561842e-25
6.233360473e-25
4.575012289e-25
3.379251159e-25
2.510120179e-25
1.873807525e-25
1.404892542e-25
1.057298987e-25
7.982742006e-26
6.04336495e-26
4.585175762e-26
3.484666397e-26
2.651340116e-26
2.018486399e-26
1.536659168e-26
1.169028171e-26
8.88040139e-27
6.730037061e-27
5.083312529e-27
3.822516061e-27
2.858628438e-27
2.124326375e-27
1.568801815e-27
1.153924856e-27
8.514110833e-28
6.407508508e-28
5.072775168e-28
2.53939113e-26
0.06822549269
0.09392041614
0.1611071624
0.1881158299
11.28915013
20.05074305
2.300300169
27.89296789
2451.567552
6.386042188e-23
4.388185014e-23
3.070662168e-23
2.139164638e-23
1.487725351e-23
1.037638951e-23
7.276239767e-24
5.137085464e-24
3.654033366e-24
2.619126576e-24
1.891509549e-24
1.375874093e-24
1.007545475e-24
7.423989238e-25
5.501200654e-25
4.097189516e-25
3.065420302e-25
2.302741937e-25
1.735949676e-25
1.312682017e-25
9.952056136e-26
7.561370101e-26
5.754730936e-26
4.385129208e-26
3.343916548e-26
2.550382983e-26
1.944292304e-26
1.480498479e-26
1.125037381e-26
8.522721626e-27
6.42796449e-27
4.818863335e-27
3.583523966e-27
2.636852041e-27
1.91417508e-27
1.366475568e-27
9.568310825e-28
6.577672245e-28
4.493103778e-28
3.172487813e-28
2.820970795e-26
0.04222485638
0.07119130495
0.04448981543
2.639470503
15.1965332
7.902488696
6.67155667
19.61156349
751.0087251
3.564122682e-23
2.242988589e-23
1.710681196e-23
1.28017582e-23
9.467159632e-24
6.965805994e-24
5.119275562e-24
3.766600728e-24
2.778482895e-24
2.056499996e-24
1.527840638e-24
1.139465255e-24
8.530317741e-25
6.408984462e-25
4.83128953e-25
3.653092451e-25
2.769795917e-25
2.105165951e-25
1.60337954e-25
1.223364054e-25
9.347571944e-26
7.150122204e-26
5.473141587e-26
4.190722336e-26
3.20823533e-26
2.454316127e-26
1.874977479e-26
1.429263196e-26
1.086025216e-26
8.215234773e-27
6.176315976e-27
4.604908056e-27
3.394971744e-27
2.465378729e-27
1.754144078e-27
1.214070518e-27
8.094656823e-28
5.136815875e-28
3.0729205e-28
1.76552165e-28
3.030143667e-26
0.01948920343
0.0197496314
0.4327432298
6.985332278
12.09244051
1.045845474
10.5818714
11.09388267
160.6630327
2.211366675e-23
1.209216034e-23
9.815816401e-24
7.793046165e-24
6.082255912e-24
4.697942995e-24
3.606656476e-24
2.759698758e-24
2.10842908e-24
1.61026419e-24
1.230235282e-24
9.406254793e-25
7.199152392e-25
5.515982352e-25
4.231004002e-25
3.248772191e-25
2.496942153e-25
1.920683661e-25
1.478409979e-25
1.138540021e-25
8.770547646e-26
6.756565781e-26
5.203830879e-26
4.005625503e-26
3.080255201e-26
2.365089073e-26
1.812046183e-26
1.384170353e-26
1.053025926e-26
7.967141353e-27
5.983596939e-27
4.449545328e-27
3.264734633e-27
2.351974521e-27
1.651958864e-27
1.119310566e-27
7.19570527e-28
4.269210836e-28
2.224869555e-28
9.299521294e-29
3.154084131e-26
0.004928256435
0.02852733845
2.278598796
9.925994378
5.907396682
0.7262747652
11.71005929
5.137840204
20.6242502
1.468745864e-23
6.758288434e-24
5.791284986e-24
4.838132054e-24
3.959839515e-24
3.19600989e-24
2.55476484e-24
2.028356902e-24
1.60256743e-24
1.261628308e-24
9.90561967e-25
7.761446189e-25
6.071696551e-25
4.743765085e-25
3.702376642e-25
2.887024274e-25
2.249452348e-25
1.751393167e-25
1.362626168e-25
1.059360698e-25
8.229130774e-26
6.38637862e-26
4.95072025e-26
3.832540275e-26
2.961846223e-26
2.284014507e-26
1.756443714e-26
1.345927662e-26
1.026597213e-26
7.783101813e-27
5.853934834e-27
4.356617365e-27
3.196525827e-27
2.300318526e-27
1.611318646e-27
1.085942297e-27
6.909492622e-28
4.013447172e-28
1.988005233e-28
7.051444677e-29
3.185524597e-26
0.002470883046
0.5671654975
5.643649052
8.5733477
1.079028126
4.588464775
10.36585488
1.853950868
1.286996956
1.013616857e-23
3.930981692e-24