/*--------------------------------*- C++ -*----------------------------------*\
  =========                 |
  \\      /  F ield         | OpenFOAM: The Open Source CFD Toolbox
   \\    /   O peration     | Website:  https://openfoam.org
    \\  /    A nd           | Version:  6
     \\/     M anipulation  |
\*---------------------------------------------------------------------------*/
FoamFile
{
    version     2.0;
    format      ascii;
    class       surfaceScalarField;
    location    "0.13";
    object      alphaPhi0.phase1;
}
// * * * * * * * * * * * * * * * * * * * * * * * * * * * * * * * * * * * * * //

dimensions      [0 3 -1 0 0 0 0];

internalField   nonuniform List<scalar> 
4900
(
-2.443215676e-21
-9.306062861e-21
2.764603616e-22
-5.119674075e-21
1.132617928e-21
-5.654311832e-22
1.856506117e-21
-2.880329352e-23
2.994298429e-21
5.053761713e-22
1.496155129e-21
1.12407458e-21
-3.661194407e-40
-4.88281561e-39
-7.338964544e-17
2.560685633e-18
-1.149594308e-20
4.089183091e-24
-1.139637057e-20
-9.957251409e-23
-1.120017907e-20
-1.961937242e-22
-1.091476329e-20
-2.85420781e-22
-1.055007302e-20
-3.646978637e-22
-1.011803333e-20
-4.320498346e-22
-9.631766108e-21
-4.862798621e-22
-9.104802654e-21
-5.269785734e-22
-8.550380042e-21
-5.544401803e-22
-7.980873769e-21
-5.695262567e-22
-7.407388588e-21
-5.73507542e-22
-6.839506322e-21
-5.679069639e-22
-6.285173565e-21
-5.543597472e-22
-5.750703303e-21
-5.344994941e-22
-5.240861397e-21
-5.098733266e-22
-4.759009942e-21
-4.818850095e-22
-4.307283141e-21
-4.517624282e-22
-3.886776175e-21
-4.205446061e-22
-3.497732518e-21
-3.890832433e-22
-3.139719807e-21
-3.580541756e-22
-2.811788191e-21
-3.279748895e-22
-2.512608131e-21
-2.992250701e-22
-2.240586836e-21
-2.720679688e-22
-1.993964014e-21
-2.466710839e-22
-1.770888574e-21
-2.231252127e-22
-1.569478409e-21
-2.014613719e-22
-1.38786558e-21
-1.816653905e-22
-1.224229224e-21
-1.636901925e-22
-1.076818339e-21
-1.474659155e-22
-9.439663933e-22
-1.329080892e-22
-8.240994456e-22
-1.199241225e-22
-7.157392096e-22
-1.084183603e-22
-6.175022486e-22
-9.829595281e-23
-5.280962659e-22
-8.946575961e-23
-4.463142598e-22
-8.184248593e-23
-3.710271417e-22
-7.534821858e-23
-3.011752731e-22
-6.99135074e-23
-2.357592471e-22
-6.547812088e-23
-1.73830102e-22
-6.199161426e-23
-1.14478921e-22
-5.941394248e-23
-5.682511204e-23
-5.771678122e-23
-5.688821306e-23
-9.355447376e-21
-1.170899897e-20
-1.995584063e-21
-1.073871049e-20
-9.210477021e-23
-5.331858683e-21
1.29155449e-23
-2.763565731e-22
2.35901859e-22
7.933184014e-23
1.337980278e-22
4.31619275e-22
-1.080720875e-18
9.274746848e-25
3.26886944e-18
2.525277442e-19
-1.159734619e-20
9.025920546e-25
-1.14929589e-20
-2.039642465e-22
-1.128939331e-20
-3.997686124e-22
-1.099403049e-20
-5.807976787e-22
-1.061741901e-20
-7.4132799e-22
-1.01722613e-20
-8.772306557e-22
-9.672466282e-21
-9.861024212e-22
-9.132268559e-21
-1.067208204e-21
-8.565472462e-21
-1.121272496e-21
-7.984862659e-21
-1.150176521e-21
-7.401796177e-21
-1.156618654e-21
-6.825967266e-21
-1.143784591e-21
-6.26532104e-21
-1.115058686e-21
-5.726084148e-21
-1.073793003e-21
-5.212879214e-21
-1.023138678e-21
-4.728892551e-21
-9.659357851e-22
-4.276069574e-21
-9.046531008e-22
-3.855318188e-21
-8.41367154e-22
-3.466706034e-21
-7.777699036e-22
-3.109642416e-21
-7.151955201e-22
-2.783039685e-21
-6.546584384e-22
-2.485451865e-21
-5.968966667e-22
-2.215190403e-21
-5.424160319e-22
-1.970418295e-21
-4.915324791e-22
-1.749224661e-21
-4.444106833e-22
-1.549682191e-21
-4.010980839e-22
-1.369890031e-21
-3.615540556e-22
-1.208004523e-21
-3.256743252e-22
-1.062260048e-21
-2.933109894e-22
-9.309819468e-22
-2.642886176e-22
-8.125932079e-22
-2.384169701e-22
-7.056163452e-22
-2.155008664e-22
-6.086716279e-22
-1.953477012e-22
-5.204726018e-22
-1.777730572e-22
-4.398196445e-22
-1.62604808e-22
-3.655921288e-22
-1.496860453e-22
-2.967396339e-22
-1.388771125e-22
-2.3227254e-22
-1.30056978e-22
-1.712522886e-22
-1.231241363e-22
-1.127817004e-22
-1.17997165e-22
-5.599650192e-23
-1.146148385e-22
-1.129345343e-22
-1.234699563e-20
-4.794876944e-21
-7.653738981e-21
-1.245792488e-20
-1.049086666e-21
-9.406982088e-21
-3.27550969e-24
-3.672510894e-21
-2.122036672e-24
-7.415745185e-24
-6.35077675e-25
2.880068238e-24
-6.399845199e-19
2.852498614e-24
1.729302397e-18
-4.5749736e-19
-1.180072472e-20
-3.626290411e-24
-1.168871782e-20
-3.159747812e-22
-1.147039375e-20
-6.181004275e-22
-1.115454017e-20
-8.966631368e-22
-1.075330966e-20
-1.142574342e-21
-1.028112939e-20
-1.349430667e-21
-9.75357568e-21
-1.513679728e-21
-9.186342248e-21
-1.634469048e-21
-8.594389969e-21
-1.713255947e-21
-7.99132071e-21
-1.753280655e-21
-7.388979029e-21
-1.758998849e-21
-6.797258114e-21
-1.735547587e-21
-6.224071108e-21
-1.688291265e-21
-5.67544402e-21
-1.622469072e-21
-5.155688663e-21
-1.542946338e-21
-4.667620248e-21
-1.454059731e-21
-4.212792087e-21
-1.359539925e-21
-3.791727609e-21
-1.262493326e-21
-3.404136724e-21
-1.165425407e-21
-3.049109026e-21
-1.070290653e-21
-2.725280444e-21
-9.7855716e-22
-2.430972811e-21
-8.912770284e-22
-2.164307675e-21
-8.091563701e-22
-1.923296738e-21
-7.326209703e-22
-1.70591186e-21
-6.618753484e-22
-1.510137643e-21
-5.969541964e-22
-1.334009562e-21
-5.377660153e-22
-1.175640312e-21
-4.841293146e-22
-1.033236726e-21
-4.358020458e-22
-9.051093243e-22
-3.92505096e-22
-7.89676142e-22
-3.539407068e-22
-6.854622586e-22
-3.198066541e-22
-5.910961239e-22
-2.898069621e-22
-5.053035686e-22
-2.636598322e-22
-4.26900184e-22
-2.411033775e-22
-3.547825913e-22
-2.2189966e-22
-2.879189921e-22
-2.058374427e-22
-2.253392915e-22
-1.927339907e-22
-1.661250113e-22
-1.824361819e-22
-1.093991606e-22
-1.748211064e-22
-5.431605578e-23
-1.697962292e-22
-1.67299126e-22
-9.670823252e-21
-3.063876956e-22
-9.996407574e-21
-3.759099735e-21
-5.589275404e-21
-1.067390562e-20
-8.777561458e-23
-7.403871412e-21
-4.585119459e-24
-1.220117615e-21
-1.46938461e-24
3.691258837e-24
-7.241671592e-20
3.357781618e-24
-1.220811658e-17
-7.371424973e-19
-1.211510165e-20
-5.017628144e-24
-1.199078998e-20
-4.402900297e-22
-1.174891104e-20
-8.599869715e-22
-1.140041937e-20
-1.245166485e-21
-1.096014822e-20
-1.582861065e-21
-1.044537418e-20
-1.864224134e-21
-9.874372271e-21
-2.08470486e-21
-9.26514533e-21
-2.243722973e-21
-8.634436938e-21
-2.343995031e-21
-7.997064572e-21
-2.390687366e-21
-7.365554574e-21
-2.39054678e-21
-6.750027976e-21
-2.351115638e-21
-6.158273233e-21
-2.280090901e-21
-5.595942963e-21
-2.184847599e-21
-5.066820706e-21
-2.072120125e-21
-4.573115972e-21
-1.947819181e-21
-4.115758013e-21
-1.816955688e-21
-3.694669462e-21
-1.683642669e-21
-3.309009311e-21
-1.551149236e-21
-2.957380794e-21
-1.421985625e-21
-2.638003844e-21
-1.298003233e-21
-2.348854283e-21
-1.180498266e-21
-2.087773299e-21
-1.07031147e-21
-1.852551291e-21
-9.679194142e-22
-1.640990251e-21
-8.735150259e-22
-1.450948555e-21
-7.870766104e-22
-1.280371652e-21
-7.084255932e-22
-1.127311648e-21
-6.372738282e-22
-9.899382885e-22
-5.732616234e-22
-8.665434246e-22
-5.15987762e-22
-7.555406099e-22
-4.650327817e-22
-6.554611581e-22
-4.199766982e-22
-5.649476849e-22
-3.804122331e-22
-4.827459245e-22
-3.459544696e-22
-4.076954106e-22
-3.162477212e-22
-3.387194605e-22
-2.90970266e-22
-2.748147747e-22
-2.698374841e-22
-2.150408683e-22
-2.526038261e-22
-1.585094731e-22
-2.390639529e-22
-1.043739714e-22
-2.290533039e-22
-5.181879606e-23
-2.224482927e-22
-2.191663452e-22
-1.109095516e-21
-2.568951112e-22
-6.907325561e-21
-3.086418744e-22
-7.793012901e-21
-2.677197547e-21
-3.213863958e-21
-9.28487614e-21
-4.227921136e-24
-4.913275228e-21
-8.318023589e-25
7.625449555e-25
-1.568904923e-19
3.152682597e-24
-2.282787695e-17
-1.187218812e-18
-1.255295582e-20
-6.102992133e-24
-1.24104132e-20
-5.828362372e-22
-1.213402577e-20
-1.136381991e-21
-1.173806973e-20
-1.641134188e-21
-1.124148853e-20
-2.079457819e-21
-1.066585199e-20
-2.439880079e-21
-1.003340394e-20
-2.717176103e-21
-9.365443192e-21
-2.911710676e-21
-8.68116298e-21
-3.028305902e-21
-7.996961673e-21
-3.074922979e-21
-7.326161897e-21
-3.061384448e-21
-6.679040098e-21
-2.998278842e-21
-6.063063592e-21
-2.896112252e-21
-5.483245035e-21
-2.764714358e-21
-4.942544811e-21
-2.612871823e-21
-4.442273042e-21
-2.448145605e-21
-3.982461338e-21
-2.276825131e-21
-3.562188581e-21
-2.103976151e-21
-3.179854959e-21
-1.933546465e-21
-2.833404884e-21
-1.768502081e-21
-2.520503082e-21
-1.610974081e-21
-2.238669872e-21
-1.462403073e-21
-1.985382209e-21
-1.323673165e-21
-1.758146796e-21
-1.195231178e-21
-1.554550944e-21
-1.077189427e-21
-1.372296099e-21
-9.694120831e-22
-1.20921809e-21
-8.715861837e-22
-1.063297438e-21
-7.832788937e-22
-9.326623306e-22
-7.039828515e-22
-8.155863451e-22
-6.331514501e-22
-7.104824907e-22
-5.70225795e-22
-6.158947689e-22
-5.146549091e-22
-5.304881435e-22
-4.659105517e-22
-4.530375678e-22
-4.234978161e-22
-3.824165327e-22
-3.869624784e-22
-3.175854512e-22
-3.558958944e-22
-2.575800903e-22
-3.299380903e-22
-2.015001725e-22
-3.087795611e-22
-1.484982063e-22
-2.921621816e-22
-9.776854744e-23
-2.798795441e-22
-4.853664273e-23
-2.717769701e-22
-2.677514094e-22
-1.705907466e-22
-1.884914378e-22
-8.442125325e-22
-2.71104988e-22
-5.925499865e-21
-2.739419412e-22
-5.998812579e-21
-2.035735378e-21
-5.934355653e-22
-7.177306834e-21
2.455194893e-23
-1.773361304e-21
-5.352346514e-19
5.178508381e-23
-1.846938417e-17
-2.044472103e-18
-1.313243204e-20
-8.908073759e-24
-1.296385683e-20
-7.514150265e-22
-1.263868987e-20
-1.461556552e-21
-1.217633601e-20
-2.103499707e-21
-1.160188466e-20
-2.653924736e-21
-1.09431498e-20
-3.098634334e-21
-1.022796258e-20
-3.432386527e-21
-9.482078183e-21
-3.657622037e-21
-8.727829131e-21
-3.78258562e-21
-7.983476051e-21
-3.819310373e-21
-7.263108796e-21
-3.781789603e-21
-6.576922637e-21
-3.684506415e-21
-5.931709617e-21
-3.541370127e-21
-5.331440296e-21
-3.365031892e-21
-4.777850036e-21
-3.166513568e-21
-4.270977895e-21
-2.955072411e-21
-3.809632096e-21
-2.738228681e-21
-3.391773726e-21
-2.521895257e-21
-3.014821231e-21
-2.310562578e-21
-2.67588409e-21
-2.107505615e-21
-2.371936498e-21
-1.914990731e-21
-2.0999422e-21
-1.73446898e-21
-1.856940786e-21
-1.566748623e-21
-1.640104368e-21
-1.412143959e-21
-1.446772037e-21
-1.270600319e-21
-1.274468037e-21
-1.141796722e-21
-1.120908265e-21
-1.025228549e-21
-9.839986641e-22
-9.202729195e-22
-8.618281358e-22
-8.26239512e-22
-7.526579361e-22
-7.424093636e-22
-6.549089645e-22
-6.680639366e-22
-5.671479377e-22
-6.025064361e-22
-4.880731373e-22
-5.450770561e-22
-4.165001874e-22
-4.951635474e-22
-3.513481492e-22
-4.522082487e-22
-2.916260999e-22
-4.157125003e-22
-2.364202707e-22
-3.852391739e-22
-1.848817611e-22
-3.604138964e-22
-1.362147955e-22
-3.409254176e-22
-8.966545833e-23
-3.265254695e-22
-4.451082481e-23
-3.170283828e-22
-3.123106648e-22
-1.205945077e-22
-7.767120001e-23
-1.486260609e-22
-2.223279243e-22
-7.047380274e-22
-2.611295119e-22
-4.642246245e-21
-2.839748365e-22
-3.791201708e-21
-1.619339091e-21
-7.348486518e-23
-2.227785292e-21
-1.045856615e-18
1.437337414e-22
-4.157915366e-18
-4.838724189e-18
-1.387958367e-20
-1.564973775e-23
-1.367386165e-20
-9.571406338e-22
-1.328051653e-20
-1.854909273e-21
-1.272669006e-20
-2.657337841e-21
-1.204656802e-20
-3.334062352e-21
-1.127691415e-20
-3.868307611e-21
-1.045323926e-20
-4.256084632e-21
-9.607101871e-21
-4.503786391e-21
-8.764623797e-21
-4.62509437e-21
-7.946027655e-21
-4.637940842e-21
-7.165895123e-21
-4.561960047e-21
-6.433849582e-21
-4.416593384e-21
-5.755426477e-21
-4.219838101e-21
-5.132968249e-21
-3.987538348e-21
-4.566446476e-21
-3.733086842e-21
-4.054163729e-21
-3.46740984e-21
-3.593321125e-21
-3.199129053e-21
-3.180457425e-21
-2.934819711e-21
-2.811775603e-21
-2.679308038e-21
-2.483376464e-21
-2.435971165e-21
-2.191418791e-21
-2.207017481e-21
-1.932223418e-21
-1.993735983e-21
-1.702335851e-21
-1.796710255e-21
-1.498559125e-21
-1.615997069e-21
-1.31796592e-21
-1.451272106e-21
-1.157896751e-21
-1.301946552e-21
-1.015949185e-21
-1.16725873e-21
-8.899616633e-22
-1.046344888e-21
-7.77994396e-22
-9.382929334e-22
-6.783090262e-22
-8.421824693e-22
-5.893481659e-22
-7.571139889e-22
-5.097154972e-22
-6.822296268e-22
-4.38156841e-22
-6.16727438e-22
-3.73542396e-22
-5.598707953e-22
-3.148502157e-22
-5.109941826e-22
-2.61150902e-22
-4.695063917e-22
-2.115934372e-22
-4.348919138e-22
-1.653920413e-22
-4.067111383e-22
-1.218139192e-22
-3.845998298e-22
-8.016775432e-23
-3.68268242e-22
-3.979279856e-23
-3.575001368e-22
-3.521519043e-22
-6.29959431e-23
-7.232866062e-24
-1.123832146e-22
-1.398093553e-22
-1.529471657e-22
-2.203997521e-22
-5.588787459e-22
-3.006174573e-22
-2.44716793e-21
-6.552045771e-22
-2.223846261e-22
-3.77913963e-22
-1.846281337e-18
-1.106737087e-22
1.99222144e-18
-6.828411016e-18
-1.482991048e-20
-2.442894494e-23
-1.457142868e-20
-1.215626024e-21
-1.408279337e-20
-2.343552179e-21
-1.34033307e-20
-3.336812191e-21
-1.258079327e-20
-4.156615353e-21
-1.166472305e-20
-4.784397253e-21
-1.070100933e-20
-5.219821573e-21
-9.728499426e-21
-5.476323273e-21
-8.777568371e-21
-5.576056113e-21
-7.870144014e-21
-5.545399537e-21
-7.020618409e-21
-5.411523578e-21
-6.237173496e-21
-5.200079741e-21
-5.523193674e-21
-4.933862806e-21
-4.878571368e-21
-4.632208898e-21
-4.300812581e-21
-4.310897147e-21
-3.78591582e-21
-3.982361302e-21
-3.329035917e-21
-3.656066743e-21
-2.924962642e-21
-3.338953761e-21
-2.568449776e-21
-3.03588456e-21
-2.25442923e-21
-2.750058145e-21
-1.978140215e-21
-2.483375593e-21
-1.735197978e-21
-2.23674987e-21
-1.521621047e-21
-2.010361273e-21
-1.333831221e-21
-1.8038633e-21
-1.168636561e-21
-1.61654537e-21
-1.023204613e-21
-1.447459183e-21
-8.950307843e-22
-1.295515197e-21
-7.819051083e-22
-1.159555034e-21
-6.818794358e-22
-1.038404783e-21
-5.932362576e-22
-9.309134064e-22
-5.144597952e-22
-8.359796663e-22
-4.442096262e-22
-7.525703409e-22
-3.812968714e-22
-6.797319415e-22
-3.246628278e-22
-6.165976648e-22
-2.733598477e-22
-5.62390939e-22
-2.265342265e-22
-5.16426613e-22
-1.834108409e-22
-4.781105967e-22
-1.432792843e-22
-4.469385627e-22
-1.054812504e-22
-4.224941752e-22
-6.939893122e-23
-4.044471899e-22
-3.444420794e-23
-3.925516792e-22
-3.86644564e-22
-1.20063174e-23
-1.584304956e-26
-6.877966537e-23
-5.797109803e-23
-1.295663006e-22
-1.283339875e-22
-3.32469874e-22
-2.112980716e-22
-2.702574978e-22
-9.045858702e-22
-9.837333039e-23
-6.521488774e-22
4.044734262e-20
-1.951105463e-19
1.573448362e-18
-1.271733748e-18
-1.603482384e-20
-3.169605008e-23
-1.56990505e-20
-1.551402959e-21
-1.507585947e-20
-2.966750815e-21
-1.4223041e-20
-4.189642336e-21
-1.320857337e-20
-5.171098563e-21
-1.210021439e-20
-5.892775656e-21
-1.095762166e-20
-6.362437542e-21
-9.828364046e-21
-6.605607872e-21
-8.747047556e-21
-6.657403301e-21
-7.736396252e-21
-6.556085191e-21
-6.809288508e-21
-6.338669262e-21
-5.97105322e-21
-6.038356485e-21
-5.221618652e-21
-5.683342274e-21
-4.557321783e-21
-5.296554028e-21
-3.972324066e-21
-4.895946398e-21
-3.459655966e-21
-4.49508412e-21
-3.011947253e-21
-4.103833262e-21
-2.621909442e-21
-3.729052364e-21
-2.282632873e-21
-3.375224806e-21
-1.987751249e-21
-3.045006222e-21
-1.731515399e-21
-2.739680562e-21
-1.508807652e-21
-2.459529288e-21
-1.315119525e-21
-2.204123508e-21
-1.146508553e-21
-1.972550699e-21
-9.995449286e-22
-1.763587622e-21
-8.712548381e-22
-1.575829978e-21
-7.590647537e-22
-1.407787942e-21
-6.607491038e-22
-1.257955176e-21
-5.743825549e-22
-1.124857532e-21
-4.982973527e-22
-1.007086391e-21
-4.310457034e-22
-9.033205538e-22
-3.713668937e-22
-8.123397189e-22
-3.181587127e-22
-7.330318943e-22
-2.704526768e-22
-6.643965495e-22
-2.273925519e-22
-6.05544863e-22
-1.88215689e-22
-5.556980987e-22
-1.522367255e-22
-5.141848799e-22
-1.188332458e-22
-4.804379323e-22
-8.743303571e-23
-4.539907187e-22
-5.750260524e-23
-4.344742707e-22
-2.853668649e-23
-4.216144384e-22
-4.152297132e-22
4.336810758e-26
1.59204259e-27
-2.314661182e-23
-2.999020897e-24
-5.938614574e-23
-7.031413737e-23
-3.775565636e-22
-1.244947513e-22
-3.491784501e-22
-9.471731911e-22
-2.131050547e-19
-9.641593173e-22
8.505053434e-20
-4.40118906e-21
-1.290742692e-17
-3.375378797e-16
-1.757210623e-20
-1.356160527e-22
-1.711399289e-20
-2.009519874e-21
-1.629850625e-20
-3.782245063e-21
-1.520440541e-20
-5.283754861e-21
-1.393028906e-20
-6.445230501e-21
-1.257000366e-20
-7.253080489e-21
-1.120096736e-20
-7.731497075e-21
-9.880350627e-21
-7.926251609e-21
-8.64591442e-21
-7.891870217e-21
-7.519146263e-21
-7.682887711e-21
-6.509116673e-21
-7.348736802e-21
-5.61615363e-21
-6.931360999e-21
-4.834920177e-21
-6.46462064e-21
-4.156781982e-21
-5.974740498e-21
-3.571511128e-21
-5.481268803e-21
-3.068439411e-21
-4.998210572e-21
-2.637188783e-21
-4.535141713e-21
-2.268095172e-21
-4.098206787e-21
-1.952420717e-21
-3.690962956e-21
-1.682427004e-21
-3.315066408e-21
-1.451361987e-21
-2.970814717e-21
-1.253397315e-21
-2.657565652e-21
-1.083540605e-21
-2.374054347e-21
-9.375384585e-22
-2.118629294e-21
-8.117798391e-22
-1.88942489e-21
-7.032052733e-22
-1.684485271e-21
-6.092246193e-22
-1.501851279e-21
-5.276444181e-22
-1.339619893e-21
-4.566048094e-22
-1.195983363e-21
-3.945254159e-22
-1.069253589e-21
-3.400593097e-22
-9.578759211e-22
-2.920540675e-22
-8.604355522e-22
-2.495189246e-22
-7.756588319e-22
-2.115970974e-22
-7.024112484e-22
-1.775424314e-22
-6.396933508e-22
-1.466996343e-22
-5.866355412e-22
-1.184874456e-22
-5.424924106e-22
-9.238418769e-23
-5.066371023e-22
-6.791521712e-23
-4.785560447e-22
-4.464186557e-23
-4.578442943e-22
-2.215150942e-23
-4.442016566e-22
-4.37429696e-22
2.901856299e-32
2.975301935e-33
2.400929587e-24
1.192695012e-24
-2.216026168e-23
-1.765480239e-23
-3.031113269e-22
-3.678619641e-23
-3.798379532e-22
-5.037278473e-23
1.205156142e-21
-4.208984972e-22
-7.426080284e-16
-6.483192984e-20
-3.577867187e-17
-1.742899259e-15
-1.947224257e-20
-1.370069007e-22
-1.888594525e-20
-2.595820799e-21
-1.779967144e-20
-4.868526486e-21
-1.636581265e-20
-6.717625332e-21
-1.473825955e-20
-8.072799188e-21
-1.304864871e-20
-8.942710768e-21
-1.139599424e-20
-9.384174796e-21
-9.846241719e-21
-9.47603114e-21
-8.437178964e-21
-9.300963692e-21
-7.185205014e-21
-8.934896035e-21
-6.09191015e-21
-8.442069629e-21
-5.149544395e-21
-7.873768237e-21
-4.345137787e-21
-7.269072176e-21
-3.663380327e-21
-6.656546249e-21
-3.088500794e-21
-6.056199903e-21
-2.60540129e-21
-5.481364828e-21
-2.200271657e-21
-4.940329187e-21
-1.860859634e-21
-4.437679639e-21
-1.576525668e-21
-3.975360636e-21
-1.338172111e-21
-3.553486456e-21
-1.138106605e-21
-3.170949381e-21
-9.698777588e-22
-2.825866211e-21
-8.281062284e-22
-2.515900028e-21
-7.083242791e-22
-2.238487713e-21
-6.068304282e-22
-1.99099741e-21
-5.205617692e-22
-1.770834679e-21
-4.469841966e-22
-1.575511557e-21
-3.839994501e-22
-1.402689176e-21
-3.298672636e-22
-1.250201794e-21
-2.831406756e-22
-1.116068004e-21
-2.426125738e-22
-9.984933065e-22
-2.072716755e-22
-8.958670642e-22
-1.762663447e-22
-8.067559799e-22
-1.488748525e-22
-7.298956347e-22
-1.244808952e-22
-6.641811524e-22
-1.025533698e-22
-6.086577342e-22
-8.262956992e-23
-5.625115747e-22
-6.430110563e-23
-5.250615007e-22
-4.720196594e-23
-4.957515616e-22
-3.099823588e-23
-4.74144718e-22
-1.537905534e-23
-4.599177207e-22
-4.528572354e-22
2.402517169e-53
1.256990715e-54
5.314004607e-28
3.254814178e-28
-1.76303692e-24
1.722354215e-24
-1.289801844e-23
-4.088715842e-24
-2.253508991e-23
-2.386032898e-22
9.275455852e-21
-1.633249356e-21
-3.134832176e-15
-2.201751228e-21
-3.359400453e-17
-2.358396035e-17
-2.198856083e-20
-1.011856188e-22
-2.115776306e-20
-3.426622171e-21
-1.964841794e-20
-6.377879217e-21
-1.772102898e-20
-8.645025973e-21
-1.560845446e-20
-1.018538931e-20
-1.349050638e-20
-1.106067829e-20
-1.148826364e-20
-1.138644079e-20
-9.671553681e-21
-1.129276812e-20
-8.071432417e-21
-1.090111569e-20
-6.692634995e-21
-1.031372784e-20
-5.523804165e-21
-9.610938434e-21
-4.544991183e-21
-8.852622716e-21
-3.732711937e-21
-8.081396363e-21
-3.06310067e-21
-7.326205821e-21
-2.513707188e-21
-6.605644967e-21
-2.064388606e-21
-5.930738177e-21
-1.697631851e-21
-5.307143799e-21
-1.398541219e-21
-4.736831118e-21
-1.154645962e-21
-4.219319625e-21
-9.556256312e-22
-3.752573297e-21
-7.930117585e-22
-3.333632432e-21
-6.598987667e-22
-2.959050934e-21
-5.506807599e-22
-2.625192204e-21
-4.608210086e-22
-2.328423954e-21
-3.866552603e-22
-2.065241849e-21
-3.252269558e-22
-1.832343753e-21
-2.741509899e-22
-1.626670248e-21
-2.315021634e-22
-1.445422561e-21
-1.957245022e-22
-1.286065722e-21
-1.655579264e-22
-1.146322429e-21
-1.399791662e-22
-1.024161372e-21
-1.181542702e-22
-9.177825958e-22
-9.940047603e-23
-8.256016132e-22
-8.315559684e-23
-7.4623343e-22
-6.895340859e-23
-6.784772067e-22
-5.640380495e-23
-6.213020272e-22
-4.517671653e-23
-5.73834049e-22
-3.498898163e-23
-5.353451911e-22
-2.559350635e-23
-5.052434354e-22
-1.677017203e-23
-4.830647673e-22
-8.318040035e-24
-4.684667573e-22
-4.612237698e-22
5.246497854e-55
7.457087385e-59
1.507663175e-34
4.455910081e-35
5.103140215e-24
3.151082363e-24
-1.952969141e-23
-1.052708846e-24
-4.693571804e-22
-1.342258205e-22
-5.987877129e-22
-1.803935565e-21
-2.565446613e-17
-3.478873274e-21
1.08420213e-18
-3.882319253e-17
-2.544970534e-20
-4.745222944e-22
-2.410831444e-20
-4.768016658e-21
-2.191535111e-20
-8.570850169e-21
-1.926169947e-20
-1.129868929e-20
-1.648432002e-20
-1.296278436e-20
-1.381691859e-20
-1.372809917e-20
-1.139519783e-20
-1.380818481e-20
-9.280412297e-21
-1.340758068e-20
-7.484446199e-21
-1.269711252e-20
-5.99014499e-21
-1.180806344e-20
-4.765701578e-21
-1.083541983e-20
-3.773909622e-21
-9.844456179e-21
-2.977614421e-21
-8.877736518e-21
-2.342594986e-21
-7.961273574e-21
-1.838828729e-21
-7.10946282e-21
-1.440804106e-21
-6.328817582e-21
-1.127316792e-21
-5.620688987e-21
-8.810195654e-22
-4.983189207e-21
-6.878848501e-22
-4.41251809e-21
-5.366675467e-22
-3.903857129e-21
-4.184120866e-22
-3.451957088e-21
-3.260218822e-22
-3.051512889e-21
-2.538949938e-22
-2.697393281e-21
-1.97622397e-22
-2.384773061e-21
-1.537418704e-22
-2.109201086e-21
-1.195394604e-22
-1.866626952e-21
-9.289063035e-23
-1.653401825e-21
-7.213393961e-23
-1.466263831e-21
-5.59710538e-23
-1.302314895e-21
-4.338787146e-23
-1.158993481e-21
-3.359246849e-23
-1.034046102e-21
-2.596636356e-23
-9.254993574e-22
-2.002628942e-23
-8.316335477e-22
-1.539421967e-23
-7.509584369e-22
-1.17738604e-23
-6.821914532e-22
-8.932186741e-24
-6.242384113e-22
-6.684898991e-24
-5.761767435e-22
-4.884906133e-24
-5.372411604e-22
-3.413126241e-24
-5.068116346e-22
-2.171034035e-24
-4.84403595e-22
-1.07449245e-24
-4.69660224e-22
-4.623467664e-22
-8.502641743e-61
-7.639909549e-62
1.003583338e-40
3.421925818e-43
2.173895479e-26
7.211901234e-27
-4.948352258e-25
8.876388805e-25
-3.704437599e-22
-1.791414584e-23
-7.046689009e-22
-6.010311256e-23
-3.377298368e-17
-2.684474857e-21
2.285770435e-26
-7.154458991e-17
-3.002908794e-20
-9.382340843e-22
-2.791005232e-20
-6.88705585e-21
-2.464324342e-20
-1.183766669e-20
-2.092661642e-20
-1.501532798e-20
-1.725070084e-20
-1.663871554e-20
-1.389802607e-20
-1.70807934e-20
-1.09954475e-20
-1.671078664e-20
-8.570600509e-21
-1.583245471e-20
-6.595872132e-21
-1.467187165e-20
-5.017827873e-21
-1.338614211e-20
-3.774950867e-21
-1.207833484e-20
-2.807320131e-21
-1.081212843e-20
-2.06122354e-21
-9.623878076e-21
-1.490816864e-21
-8.531728581e-21
-1.058190297e-21
-7.542140997e-21
-7.3266611e-22
-6.654396566e-21
-4.897980388e-22
-5.863614946e-21
-3.10324376e-22
-5.162723749e-21
-1.791976576e-22
-4.543708574e-21
-8.474099178e-23
-3.998380339e-21
-1.794224012e-23
-3.518825052e-21
2.81218446e-23
-3.097648741e-21
5.874747766e-23
-2.728093121e-21
7.796982582e-23
-2.404071937e-21
8.885050394e-23
-2.120160493e-21
9.370197384e-23
-1.871559231e-21
9.426185154e-23
-1.654044468e-21
9.182780239e-23
-1.463914381e-21
8.736162653e-23
-1.297935026e-21
8.156937359e-23
-1.153289118e-21
7.496287315e-23
-1.027528948e-21
6.790689648e-23
-9.185340575e-22
6.065523342e-23
-8.24473765e-22
5.337823432e-23
-7.437743951e-22
4.618379385e-23
-6.750909201e-22
3.913330707e-23
-6.17282655e-22
3.22537839e-23
-5.693926471e-22
2.554704224e-23
-5.30630415e-22
1.89966973e-23
-5.003577287e-22
1.25735106e-23
-4.780771634e-22
6.23954727e-24
-4.634232052e-22
-4.561557326e-22
5.510793898e-36
1.551973878e-37
1.020658888e-34
2.563042184e-35
7.72047644e-33
2.554082859e-33
2.825463094e-24
1.843836309e-24
-7.881358366e-24
-1.998581451e-24
-2.075753825e-23
-3.438967428e-23
-4.437228955e-17
-1.070638046e-21
6.47810772e-18
-5.102616035e-17
-3.65114059e-20
-1.939060718e-21
-3.28600838e-20
-1.053838153e-20
-2.782199143e-20
-1.687576668e-20
-2.255186423e-20
-2.028546688e-20
-1.76946228e-20
-2.149597258e-20
-1.352953746e-20
-2.124589818e-20
-1.011824594e-20
-2.012210144e-20
-7.410803212e-21
-1.853992447e-20
-5.310658221e-21
-1.677204739e-20
-3.710339252e-21
-1.498649549e-20
-2.508926449e-21
-1.327978565e-20
-1.619160653e-21
-1.170193576e-20
-9.691064648e-22
-1.027397724e-20
-5.012257676e-22
-8.999657622e-21
-1.704215209e-22
-7.872996867e-21
5.815083063e-23
-6.883023727e-21
2.111332023e-22
-6.01665522e-21
3.087317242e-22
-5.260383164e-21
3.661701328e-22
-4.601210763e-21
3.948512543e-22
-4.02712802e-21
4.032678545e-22
-3.527310881e-21
3.977078901e-22
-3.092160561e-21
3.827957815e-22
-2.713255237e-21
3.619052639e-22
-2.383257964e-21
3.374728816e-22
-2.095806857e-21
3.112352436e-22
-1.84540242e-21
2.844081069e-22
-1.627300115e-21
2.578212419e-22
-1.437412133e-21
2.320197725e-22
-1.272219882e-21
2.073401449e-22
-1.128697398e-21
1.839669157e-22
-1.004245083e-21
1.619750566e-22
-8.966328938e-22
1.413613278e-22
-8.039519354e-22
1.220674122e-22
-7.245734557e-22
1.039968432e-22
-6.571142772e-22
8.702726695e-23
-6.004078279e-22
7.101920682e-23
-5.534800324e-22
5.582221542e-23
-5.155294385e-22
4.127908998e-23
-4.859110609e-22
2.722866926e-23
-4.641235163e-22
1.35076149e-23
-4.497991138e-22
-4.426966396e-22
4.398095327e-37
8.893359453e-39
2.839882711e-32
5.775718802e-33
3.113676932e-32
1.452086492e-32
1.207200801e-24
2.066635129e-25
9.775605376e-25
4.988668437e-24
-1.331960771e-23
-6.729828075e-27
-2.028138011e-17
-3.730360657e-22
-1.521135662e-17
-6.101851628e-17
-4.600154902e-20
-4.804146497e-21
-3.919928723e-20
-1.734064691e-20
-3.123532205e-20
-2.483973948e-20
-2.376605789e-20
-2.775474274e-20
-1.744748152e-20
-2.781456455e-20
-1.240781775e-20
-2.628558142e-20
-8.537433101e-21
-2.399250936e-20
-5.643766974e-21
-2.143361764e-20
-3.525589472e-21
-1.889025566e-20
-2.003879917e-21
-1.650823946e-20
-9.311820125e-22
-1.435252157e-20
-1.9122107e-22
-1.244193824e-20
3.052429211e-22
-1.077048622e-20
6.254897555e-22
-9.31995281e-21
8.19616975e-22
-8.06717572e-21
9.245868404e-22
-6.988048415e-21
9.674702168e-22
-6.059596511e-21
9.679641581e-22
-5.260938011e-21
9.403069835e-22
-4.573617382e-21
8.94716379e-22
-3.98160399e-21
8.384602778e-22
-3.471124024e-21
7.766498953e-22
-3.030421978e-21
7.128248601e-22
-2.649504441e-21
6.493838658e-22
-2.319893531e-21
5.879010398e-22
-2.034402794e-21
5.293579852e-22
-1.786940208e-21
4.743136811e-22
-1.572338611e-21
4.230286209e-22
-1.386211706e-21
3.755552535e-22
-1.224832857e-21
3.31803609e-22
-1.085033679e-21
2.915886491e-22
-9.641195058e-22
2.54664158e-22
-8.597991153e-22
2.207467228e-22
-7.701264166e-22
1.895324231e-22
-6.934521494e-22
1.607081624e-22
-6.283839599e-22
1.339590694e-22
-5.737535014e-22
1.089730254e-22
-5.285894512e-22
8.544309978e-23
-4.92095545e-22
6.306847285e-23
-4.636329086e-22
4.15542777e-23
-4.427061117e-22
2.061068628e-23
-4.289525022e-22
-4.221344829e-22
2.367369291e-42
2.256099978e-43
7.405070911e-33
2.75489421e-34
1.480111619e-31
3.461878675e-32
3.481836974e-28
1.482452224e-28
3.181214904e-24
1.115001587e-24
-4.358991254e-23
-2.314284049e-32
-1.702260591e-17
4.352125361e-27
-4.027811103e-17
-5.194522845e-17
-5.988853187e-20
-1.425833852e-20
-4.670789004e-20
-3.052129232e-20
-3.415895864e-20
-3.73886785e-20
-2.383221064e-20
-3.808150246e-20
-1.59226241e-20
-3.57241667e-20
-1.011723943e-20
-3.209098556e-20
-5.979950008e-21
-2.812982206e-20
-3.101135385e-21
-2.431245931e-20
-1.143898908e-21
-2.08475229e-20
1.517432487e-22
-1.780391605e-20
9.79430982e-22
-1.518024732e-20
1.480321803e-21
-1.294287061e-20
1.75589201e-21
-1.104610142e-20
1.878387298e-21
-9.442496461e-21
1.898859103e-21
-8.087699169e-21
1.853143125e-21
-6.94238727e-21
1.766220976e-21
-5.972732287e-21
1.655364929e-21
-5.150142882e-21
1.532389237e-21
-4.450705496e-21
1.405255118e-21
-3.854536457e-21
1.279212287e-21
-3.345150449e-21
1.15760982e-21
-2.908891324e-21
1.042471701e-21
-2.534440574e-21
9.349050612e-22
-2.212403466e-21
8.353894605e-22
-1.93496597e-21
7.43981512e-22
-1.695613117e-21
6.604592185e-22
-1.488899133e-21
5.844233111e-22
-1.310260447e-21
5.153679042e-22
-1.155863808e-21
4.527292376e-22
-1.022482953e-21
3.959187694e-22
-9.073984352e-22
3.443451025e-22
-8.083161765e-22
2.974279513e-22
-7.233011974e-22
2.546064539e-22
-6.507236609e-22
2.153434771e-22
-5.89214942e-22
1.791271006e-22
-5.376319069e-22
1.454701256e-22
-4.950279543e-22
1.139082132e-22
-4.606296801e-22
8.399708287e-23
-4.338182684e-22
5.530907509e-23
-4.141149098e-22
2.742929336e-23
-4.011697154e-22
-3.947537258e-22
2.331185025e-49
1.211450327e-50
2.962440874e-33
7.737373443e-35
3.159522582e-31
8.288812379e-32
3.269502801e-31
1.05587147e-31
9.170175603e-27
4.261949427e-27
5.169278589e-32
8.243368438e-33
-8.763324981e-18
1.019745551e-27
-2.997276886e-17
-4.47773482e-17
-7.803834805e-20
-4.192608948e-20
-5.36008753e-20
-5.495876866e-20
-3.486741698e-20
-5.612214445e-20
-2.148375829e-20
-5.146517286e-20
-1.229419059e-20
-4.491375001e-20
-6.15844005e-21
-3.822675557e-20
-2.163633487e-21
-3.212465191e-20
3.634547129e-22
-2.683957457e-20
1.899713874e-21
-2.238381284e-20
2.775579628e-21
-1.867981624e-20
3.217035792e-21
-1.562174151e-20
3.377328028e-21
-1.31032044e-20
3.359718657e-21
-1.102853706e-20
3.23338115e-21
-9.316207326e-21
3.044340117e-21
-7.89870979e-21
2.822941052e-21
-6.721043047e-21
2.588929942e-21
-5.738779112e-21
2.354901732e-21
-4.9161756e-21
2.128640701e-21
-4.224508282e-21
1.914709407e-21
-3.64067176e-21
1.715528005e-21
-3.146038313e-21
1.532107543e-21
-2.725542686e-21
1.364547878e-21
-2.366955174e-21
1.212375132e-21