/*--------------------------------*- C++ -*----------------------------------*\
  =========                 |
  \\      /  F ield         | OpenFOAM: The Open Source CFD Toolbox
   \\    /   O peration     | Website:  https://openfoam.org
    \\  /    A nd           | Version:  6
     \\/     M anipulation  |
\*---------------------------------------------------------------------------*/
FoamFile
{
    version     2.0;
    format      ascii;
    class       volVectorField;
    location    "0.13";
    object      gradT;
}
// * * * * * * * * * * * * * * * * * * * * * * * * * * * * * * * * * * * * * //

dimensions      [0 -1 0 1 0 0 0];

internalField   nonuniform List<vector> 
2500
(
(0 -1684.651389 30762.29219)
(0 -3915.892237 27002.00216)
(0 -4037.271781 21298.71195)
(0 -3185.940603 15521.82418)
(0 -2448.251403 10470.00259)
(0 -1961.631712 6476.555975)
(0 -1699.199234 3142.152376)
(0 -825.8860969 138.0973827)
(0 -26.21639341 63.86139956)
(0 -10.16127224 39.45321584)
(0 -6.348311686 23.79550592)
(0 -3.890185521 13.99758013)
(0 -2.321807858 8.032435596)
(0 -1.347486595 4.499597912)
(0 -0.7608161015 2.462477953)
(0 -0.4185005155 1.317318871)
(0 -0.2246308292 0.6889238133)
(0 -0.1178020165 0.3520325933)
(0 -0.06039139231 0.1755606385)
(0 -0.03025223106 0.08531141427)
(0 -0.01478929719 0.04032143767)
(0 -0.007042804565 0.01850315164)
(0 -0.00326034981 0.008231331786)
(0 -0.001464428486 0.003545608813)
(0 -0.0006371875461 0.001477585167)
(0 -0.0002682601813 0.0005954610561)
(0 -0.0001091982641 0.0002320199708)
(0 -4.29651345e-05 8.741587068e-05)
(0 -1.633691268e-05 3.185206224e-05)
(0 -6.004381276e-06 1.1231751e-05)
(0 -2.136593552e-06 3.832918201e-06)
(0 -7.357422295e-07 1.263208469e-06)
(0 -2.445101774e-07 4.015406744e-07)
(0 -7.637413741e-08 1.218315722e-07)
(0 -2.089347937e-08 3.85399991e-08)
(0 -5.082197684e-09 1.261137944e-08)
(0 -2.258754526e-09 8.187985157e-09)
(0 -6.63509142e-09 1.082319877e-09)
(0 -6.588034034e-09 -6.823320964e-09)
(0 -1.97641021e-09 -1.270549421e-08)
(0 0 -1.388192886e-08)
(0 2.44698407e-09 -1.529365044e-08)
(0 4.376336894e-09 -1.016439537e-08)
(0 2.352869298e-09 -3.011672701e-09)
(0 2.917557929e-09 1.411721579e-09)
(0 2.21169714e-09 6.823320964e-09)
(0 -2.823443158e-10 6.917435736e-09)
(0 -4.705738596e-11 7.011550508e-09)
(0 -1.599951123e-09 7.10566528e-09)
(0 -2.870500543e-09 3.011672701e-09)
(0 -2075.638641 17119.77123)
(0 -5547.688002 17025.28449)
(0 -7442.906201 15875.67236)
(0 -7642.768755 13034.56677)
(0 -6597.016801 9293.073621)
(0 -5366.218506 5852.619739)
(0 -4639.259358 2899.87057)
(0 -2252.40488 134.6684202)
(0 -72.42777346 66.32850699)
(0 -29.90462139 42.3571034)
(0 -19.10732403 26.39469797)
(0 -11.87288481 16.08498836)
(0 -7.176174361 9.594092811)
(0 -4.222471047 5.600558134)
(0 -2.42146294 3.197189539)
(0 -1.355053625 1.782555254)
(0 -0.7406554482 0.9689647709)
(0 -0.3955611584 0.5125264394)
(0 -0.2063297867 0.2632715108)
(0 -0.1049869698 0.1310893828)
(0 -0.05201896544 0.06317190186)
(0 -0.02504730132 0.02942687091)
(0 -0.01169719296 0.0132392291)
(0 -0.00528931818 0.005750039117)
(0 -0.002312960164 0.002410431116)
(0 -0.0009773050146 0.0009753835674)
(0 -0.0003988469214 0.0003810993694)
(0 -0.0001572028211 0.0001438371588)
(0 -5.9847207e-05 5.24719029e-05)
(0 -2.201476276e-05 1.851246975e-05)
(0 -7.831948975e-06 6.318818729e-06)
(0 -2.69558824e-06 2.091889035e-06)
(0 -8.968196616e-07 6.704265778e-07)
(0 -2.867206526e-07 2.082759903e-07)
(0 -8.827965606e-08 6.056285573e-08)
(0 -2.526981626e-08 1.811709359e-08)
(0 -9.31736242e-09 4.235164736e-09)
(0 -8.376214701e-09 -3.764590877e-10)
(0 -7.152722666e-09 -1.223492035e-09)
(0 -5.082197684e-09 -1.599951123e-09)
(0 -2.635213614e-09 -6.070402789e-09)
(0 1.270549421e-09 -5.835115859e-09)
(0 7.905640841e-09 -5.788058473e-09)
(0 9.270305034e-09 -6.305689718e-09)
(0 6.917435736e-09 1.317606807e-09)
(0 3.294017017e-09 1.835238052e-09)
(0 5.176312455e-10 2.399926684e-09)
(0 1.411721579e-10 2.635213614e-09)
(0 -2.399926684e-09 2.541098842e-09)
(0 -7.246837438e-09 4.18810735e-09)
(0 -1779.138127 10142.24772)
(0 -5159.991103 10801.26292)
(0 -8027.989502 11373.33334)
(0 -9768.539342 10888.51446)
(0 -9630.198432 8756.952994)
(0 -8354.834763 5794.956051)
(0 -7417.150553 2985.961097)
(0 -3659.42816 145.8863343)
(0 -118.5277102 75.46397082)
(0 -50.09508126 50.46203728)
(0 -32.62042672 33.18985251)
(0 -20.69079068 21.44634596)
(0 -12.80623809 13.58456103)
(0 -7.744389867 8.408943469)
(0 -4.578818982 5.069583268)
(0 -2.646725283 2.967192183)
(0 -1.494659643 1.681376758)
(0 -0.8234952766 0.9204056858)
(0 -0.441828449 0.485944966)
(0 -0.23035184 0.2471816293)
(0 -0.1164518091 0.1210576239)
(0 -0.05697547732 0.05706951407)
(0 -0.0269371817 0.02589837221)
(0 -0.01229322643 0.01131667584)
(0 -0.005411843142 0.004763676779)
(0 -0.002297591928 0.00193283973)
(0 -0.0009407446727 0.000756439856)
(0 -0.000371592554 0.000285754941)
(0 -0.0001416616017 0.0001042814731)
(0 -5.215741839e-05 3.679059372e-05)
(0 -1.855722132e-05 1.255843988e-05)
(0 -6.384181438e-06 4.152061393e-06)
(0 -2.128123223e-06 1.331724023e-06)
(0 -6.861437447e-07 4.135873652e-07)
(0 -2.110994334e-07 1.233374086e-07)
(0 -6.145694606e-08 3.708122014e-08)
(0 -2.065819244e-08 9.599706736e-09)
(0 -1.209374819e-08 6.493919262e-09)
(0 -7.858583455e-09 2.635213614e-09)
(0 -6.87037835e-09 5.364541999e-09)
(0 -4.18810735e-09 3.858705649e-09)
(0 2.729328386e-09 1.835238052e-09)
(0 3.858705649e-09 1.364664193e-09)
(0 9.411477192e-09 -1.882295438e-09)
(0 1.110554309e-08 -1.411721579e-10)
(0 3.294017017e-09 4.705738596e-11)
(0 5.176312455e-10 -4.235164736e-10)
(0 1.411721579e-10 -6.588034034e-10)
(0 0 -9.411477192e-11)
(0 -9.646764122e-09 -1.411721579e-10)
(0 -1416.623439 6937.207443)
(0 -4316.602379 7645.329047)
(0 -7355.654661 8644.379702)
(0 -10259.1491 9302.665651)
(0 -11690.57521 8595.967133)
(0 -11137.2104 6064.238397)
(0 -10288.32908 3194.945532)
(0 -5162.902006 170.6626272)
(0 -167.8520705 95.5563252)
(0 -72.1787397 67.97135484)
(0 -48.12301535 47.74647315)
(0 -31.47817628 32.89775809)
(0 -20.21357685 22.09748674)
(0 -12.73744881 14.39399152)
(0 -7.863214226 9.054877765)
(0 -4.743260134 5.48477237)
(0 -2.787441946 3.192788415)
(0 -1.590992951 1.78416999)
(0 -0.8795538433 0.9566326413)
(0 -0.4698743118 0.4921309135)
(0 -0.2421310806 0.2429767558)
(0 -0.1202065531 0.1151903984)
(0 -0.05745003129 0.05247114335)
(0 -0.02642401342 0.02298301803)
(0 -0.01169679632 0.009688000462)
(0 -0.004984541937 0.00393347927)
(0 -0.00204593171 0.001539637342)
(0 -0.000809361204 0.0005814951769)
(0 -0.0003088115543 0.0002121000146)
(0 -0.000113737796 7.478110372e-05)
(0 -4.047038719e-05 2.550769135e-05)
(0 -1.392235115e-05 8.421248619e-06)
(0 -4.635387804e-06 2.695023551e-06)
(0 -1.495107267e-06 8.363509206e-07)
(0 -4.647387437e-07 2.512393836e-07)
(0 -1.390075181e-07 7.148016927e-08)
(0 -3.990466329e-08 2.051702028e-08)
(0 -1.538776521e-08 6.964493122e-09)
(0 -8.235042543e-09 5.364541999e-09)
(0 -3.858705649e-09 7.34095221e-09)
(0 -6.211574947e-09 9.364419806e-09)
(0 -1.176434649e-09 3.623418719e-09)
(0 4.18810735e-09 1.317606807e-09)
(0 7.764468683e-09 2.352869298e-09)
(0 8.84678856e-09 -2.917557929e-09)
(0 3.011672701e-09 -1.458778965e-09)
(0 -1.882295438e-10 -7.529181753e-10)
(0 5.176312455e-10 -3.764590877e-10)
(0 -1.929352824e-09 -4.705738596e-10)
(0 -7.011550508e-09 -2.494041456e-09)
(0 -1071.016523 5413.953782)
(0 -3452.818844 6096.461188)
(0 -6370.652897 7126.874035)
(0 -9816.951911 8095.745358)
(0 -12868.62569 8329.213229)
(0 -13755.85636 6509.487816)
(0 -13310.72632 3441.36369)
(0 -6758.817367 215.8373667)
(0 -221.2189826 135.3406772)
(0 -97.90493331 103.1696249)
(0 -67.69402347 77.1525361)
(0 -46.33977709 56.06005881)
(0 -31.31000466 39.30740233)
(0 -20.78699884 26.474612)
(0 -13.48803813 17.08144341)
(0 -8.508814634 10.54244544)
(0 -5.195262023 6.220987464)
(0 -3.05965105 3.510100766)
(0 -1.733867525 1.894656215)
(0 -0.9440077254 0.9790480155)
(0 -0.4933923241 0.4847469357)
(0 -0.2474810898 0.230183639)
(0 -0.119144562 0.1049329365)
(0 -0.05507636936 0.04596896787)
(0 -0.02446138185 0.01937185696)
(0 -0.01044595505 0.007860776329)
(0 -0.004292728766 0.0030744921)
(0 -0.001699129834 0.001160148699)
(0 -0.000648375722 0.0004227531558)
(0 -0.0002387497887 0.0001488991689)
(0 -8.491712349e-05 5.073308543e-05)
(0 -2.919680218e-05 1.673581814e-05)
(0 -9.712926806e-06 5.351224759e-06)
(0 -3.12997497e-06 1.658161109e-06)
(0 -9.760642996e-07 4.977259713e-07)
(0 -2.92132252e-07 1.435250272e-07)
(0 -8.517386859e-08 4.362219678e-08)
(0 -2.719916908e-08 1.044673968e-08)
(0 -7.529181753e-09 4.799853368e-09)
(0 -2.823443158e-09 1.176434649e-09)
(0 -7.905640841e-09 3.764590877e-10)
(0 -5.364541999e-09 -9.882051051e-10)
(0 2.682271e-09 -3.294017017e-10)
(0 5.176312455e-09 4.705738596e-11)
(0 7.246837438e-09 -3.999877806e-09)
(0 5.505714157e-09 -2.258754526e-09)
(0 1.505836351e-09 4.705738596e-10)
(0 4.235164736e-10 4.235164736e-10)
(0 -2.070524982e-09 -9.411477192e-11)
(0 -6.682148806e-09 1.882295438e-10)
(0 -734.116033 4614.559701)
(0 -2603.682126 5285.890411)
(0 -5356.370492 6336.600398)
(0 -9056.809904 7379.47069)
(0 -13276.83275 7948.222314)
(0 -16025.05994 6951.756094)
(0 -16581.97952 3725.60303)
(0 -8468.925019 298.8722158)
(0 -280.5198124 212.4104218)
(0 -130.3668808 172.0682167)
(0 -95.23258139 134.884761)
(0 -69.32331005 101.5194442)
(0 -49.79902366 73.01448135)
(0 -34.96340774 50.06369023)
(0 -23.79538079 32.69918439)
(0 -15.60371608 20.34697861)
(0 -9.819786619 12.0695992)
(0 -5.9173242 6.831627483)
(0 -3.410606594 3.693752466)
(0 -1.879783591 1.909971533)
(0 -0.9909954572 0.9456132277)
(0 -0.5000205522 0.4487837636)
(0 -0.2416647023 0.2044081461)
(0 -0.1119850931 0.08945095378)
(0 -0.04980498786 0.03765058651)
(0 -0.02128190679 0.01525871579)
(0 -0.008746559293 0.005960299423)
(0 -0.003461100195 0.002246216697)
(0 -0.001320061085 0.0008174887675)
(0 -0.0004857578193 0.0002875791676)
(0 -0.0001726337379 9.78727277e-05)
(0 -5.930421183e-05 3.22519559e-05)
(0 -1.97130919e-05 1.030039121e-05)
(0 -6.348606054e-06 3.189031989e-06)
(0 -1.979280711e-06 9.573825173e-07)
(0 -5.931112926e-07 2.783444379e-07)
(0 -1.730770656e-07 7.962109704e-08)
(0 -5.421010862e-08 2.508158672e-08)
(0 -1.755240496e-08 6.352747104e-09)
(0 -8.282099929e-09 -1.647008509e-09)
(0 -8.329157315e-09 -3.341074403e-09)
(0 -1.882295438e-09 -9.411477192e-10)
(0 5.223369841e-09 -1.270549421e-09)
(0 3.999877806e-09 -3.764590877e-10)
(0 6.540976648e-09 -2.870500543e-09)
(0 7.529181753e-09 -2.070524982e-09)
(0 2.541098842e-09 7.058607894e-10)
(0 0 2.823443158e-10)
(0 -2.21169714e-09 3.294017017e-10)
(0 -7.10566528e-09 4.705738596e-11)
(0 -399.6858124 4180.254494)
(0 -1730.778146 4824.708416)
(0 -4277.072618 5941.178432)
(0 -8205.329996 7135.88668)
(0 -13296.34028 7920.982717)
(0 -17978.47565 7462.874605)
(0 -19963.6102 4341.30089)
(0 -10272.00997 459.5248785)
(0 -348.0229817 360.1486044)
(0 -175.4305941 304.2069521)
(0 -138.2427959 245.4965554)
(0 -108.2100568 188.3681595)
(0 -82.76575862 137.1480766)
(0 -61.1022958 94.73461438)
(0 -43.20474975 62.12909198)
(0 -29.13839982 38.73256112)
(0 -18.71061315 22.98584855)
(0 -11.43549778 13.00402354)
(0 -6.655523475 7.023453188)
(0 -3.692146964 3.626459262)
(0 -1.954580093 1.79247664)
(0 -0.9886861715 0.8492145388)
(0 -0.4784773718 0.3861048065)
(0 -0.221833929 0.1686650036)
(0 -0.09865361989 0.07087022202)
(0 -0.04213624208 0.02867404869)
(0 -0.01730522785 0.01118277499)
(0 -0.006841940489 0.004208014083)
(0 -0.002607013205 0.001529278317)
(0 -0.0009583658755 0.000537249658)
(0 -0.0003402443822 0.0001826128684)
(0 -0.0001167690916 6.010588145e-05)
(0 -3.877585072e-05 1.917216724e-05)
(0 -1.247293661e-05 5.932054074e-06)
(0 -3.886845965e-06 1.779098591e-06)
(0 -1.169893672e-06 5.169724421e-07)
(0 -3.382955477e-07 1.442779453e-07)
(0 -1.005145764e-07 4.310456554e-08)
(0 -3.435189175e-08 1.087025616e-08)
(0 -1.247020728e-08 2.117582368e-09)
(0 -7.199780052e-09 6.588034034e-10)
(0 -3.246959631e-09 2.352869298e-09)
(0 3.199902245e-09 -2.729328386e-09)
(0 3.623418719e-09 -2.917557929e-09)
(0 5.552771543e-09 -1.599951123e-09)
(0 9.035018104e-09 -2.823443158e-09)
(0 3.858705649e-09 4.705738596e-11)
(0 -4.705738596e-11 -3.294017017e-10)
(0 -2.258754526e-09 -3.294017017e-10)
(0 -7.011550508e-09 -1.411721579e-10)
(0 -89.66211088 4036.395627)
(0 -842.7581881 4570.76183)
(0 -3045.192227 5725.811254)
(0 -7077.005619 7161.78307)
(0 -12949.84482 8338.082259)
(0 -19604.74177 8374.024727)
(0 -23585.32925 5652.95514)
(0 -12450.0773 763.4939242)
(0 -435.8377388 637.0027574)
(0 -245.0189298 551.5551095)
(0 -211.071374 451.922164)
(0 -177.6717889 349.6436802)
(0 -143.4325687 255.5286176)
(0 -109.9823923 176.6670702)
(0 -79.79743406 115.7688593)
(0 -54.74695951 72.04254603)
(0 -35.54832419 42.65342495)
(0 -21.87971956 24.06798635)
(0 -12.78817087 12.96419558)
(0 -7.110760139 6.676067926)
(0 -3.76824018 3.291331154)
(0 -1.906392386 1.555491174)
(0 -0.9222142376 0.705580576)
(0 -0.4272196776 0.3075526535)
(0 -0.1897959427 0.1289653068)
(0 -0.08096935392 0.05208014758)
(0 -0.03321259394 0.02027511308)
(0 -0.01311459682 0.007616827923)
(0 -0.004990825463 0.002763859801)
(0 -0.001832423221 0.0009695805917)
(0 -0.0006497775615 0.0003291221338)
(0 -0.0002227449129 0.0001081942006)
(0 -7.388701339e-05 3.447273512e-05)
(0 -2.374158059e-05 1.065327455e-05)
(0 -7.394315285e-06 3.192890695e-06)
(0 -2.228026053e-06 9.272657903e-07)
(0 -6.469449422e-07 2.613567216e-07)
(0 -1.87523683e-07 6.931552952e-08)
(0 -5.844527336e-08 1.854061007e-08)
(0 -1.858766745e-08 4.18810735e-09)
(0 -8.093870385e-09 3.764590877e-10)
(0 -5.270427227e-09 8.940903332e-10)
(0 -9.411477192e-11 -2.44698407e-09)
(0 5.223369841e-09 -3.105787473e-09)
(0 6.63509142e-09 -1.270549421e-09)
(0 9.08207549e-09 -2.44698407e-09)
(0 5.082197684e-09 3.294017017e-10)
(0 -3.294017017e-10 2.352869298e-10)
(0 -2.070524982e-09 -2.823443158e-10)
(0 -6.682148806e-09 2.399926684e-09)
(0 134.6803912 4209.781472)
(0 -41.36251936 4521.851284)
(0 -1686.051378 5581.26199)
(0 -5593.05899 7233.01156)
(0 -12084.09862 8873.655247)
(0 -20663.60277 9534.817955)
(0 -27574.141 7434.482601)
(0 -15287.96236 1302.584463)
(0 -559.9617964 1141.308188)
(0 -360.5111875 1002.47919)
(0 -340.1542253 826.4648377)
(0 -304.6036032 640.1681244)
(0 -255.7423686 467.0765698)
(0 -200.8620541 321.9109194)
(0 -147.829274 210.1352612)
(0 -102.2538342 130.2323245)
(0 -66.68517283 76.79178751)
(0 -41.12472716 43.16199475)
(0 -24.0474419 23.1637247)
(0 -13.36501139 11.88768375)
(0 -7.075156845 5.842200349)
(0 -3.574436749 2.753035757)
(0 -1.726415893 1.245474486)
(0 -0.7984491982 0.5415620023)
(0 -0.3541261259 0.2265845915)
(0 -0.1508264358 0.09131426109)
(0 -0.06176854746 0.03548224428)
(0 -0.02435319377 0.01330664474)
(0 -0.009254260583 0.004820762988)
(0 -0.00339310359 0.001688658907)
(0 -0.001201630726 0.0005724283951)
(0 -0.0004114184903 0.0001879391056)
(0 -0.0001363167297 5.980970227e-05)
(0 -4.375287514e-05 1.846249481e-05)
(0 -1.361285472e-05 5.531783949e-06)
(0 -4.101333531e-06 1.607339132e-06)
(0 -1.196245808e-06 4.529743972e-07)
(0 -3.433777453e-07 1.199492768e-07)
(0 -9.947931392e-08 3.246959631e-08)
(0 -3.058730087e-08 6.964493122e-09)
(0 -1.044673968e-08 1.411721579e-09)
(0 -6.164517561e-09 -7.529181753e-10)
(0 -7.999755613e-10 -9.882051051e-10)
(0 4.752795982e-09 -2.258754526e-09)
(0 6.258632332e-09 -1.835238052e-09)
(0 1.058791184e-08 -2.541098842e-09)
(0 6.493919262e-09 3.764590877e-10)
(0 -6.117460175e-10 8.470329473e-10)
(0 0 2.823443158e-10)
(0 -9.129132876e-09 4.705738596e-11)
(0 222.4077004 4609.896814)
(0 528.7223297 4742.535296)
(0 -334.0319512 5501.761805)
(0 -3784.612362 7250.131851)
(0 -10648.03843 9363.247497)
(0 -21043.91442 10741.41187)
(0 -31817.56274 9374.218262)
(0 -18743.25172 2237.499512)
(0 -735.943012 2040.194105)
(0 -559.8622798 1803.709508)
(0 -573.3824393 1486.370681)
(0 -537.0600569 1146.858886)
(0 -461.6897737 832.2398587)
(0 -366.9237009 570.1856264)
(0 -271.4760289 370.0049854)
(0 -188.0904332 228.0234475)
(0 -122.618654 133.753065)
(0 -75.50778237 74.8190656)
(0 -44.06248187 39.97913195)
(0 -24.43228449 20.43705131)
(0 -12.90288818 10.0083048)
(0 -6.503118248 4.701213106)
(0 -3.133687992 2.120713047)
(0 -1.446109573 0.9197382441)
(0 -0.6400436838 0.383903218)
(0 -0.2720717012 0.154382973)
(0 -0.1112202103 0.05987210417)
(0 -0.04377607811 0.0224134303)
(0 -0.01660881129 0.008106754697)
(0 -0.006080757908 0.002835453285)
(0 -0.002150497268 0.0009598492184)
(0 -0.0007353635587 0.0003147356556)
(0 -0.0002433636713 0.0001000431555)
(0 -7.801945185e-05 3.084950463e-05)
(0 -2.42494239e-05 9.235106109e-06)
(0 -7.306976777e-06 2.684670926e-06)
(0 -2.134381855e-06 7.553651594e-07)
(0 -6.079343692e-07 2.028643909e-07)
(0 -1.71430057e-07 5.369247738e-08)
(0 -4.969259957e-08 1.016439537e-08)
(0 -1.581128168e-08 -1.647008509e-09)
(0 -7.623296525e-09 -7.999755613e-10)
(0 -1.599951123e-09 -1.882295438e-10)
(0 4.376336894e-09 -2.541098842e-09)
(0 6.352747104e-09 2.823443158e-10)
(0 1.129377263e-08 -1.270549421e-09)
(0 8.470329473e-09 3.294017017e-10)
(0 -3.764590877e-10 4.705738596e-10)
(0 -2.917557929e-09 0)
(0 -7.011550508e-09 -2.44698407e-09)
(0 267.3188735 5074.144545)
(0 850.5024713 5134.604124)
(0 821.5451763 5562.773432)
(0 -1731.573298 7217.763721)
(0 -8592.818601 9797.503462)
(0 -20652.632 12046.71681)
(0 -36078.05337 11578.6772)
(0 -22621.98651 3859.193281)
(0 -993.7518001 3612.94368)
(0 -914.3346115 3190.414644)
(0 -997.0048479 2613.131527)
(0 -958.7344254 2000.280953)
(0 -832.4156279 1439.48326)
(0 -663.0969275 978.3164187)
(0 -489.9914528 630.1333335)
(0 -338.5057545 385.7158583)
(0 -219.8895547 224.8840929)
(0 -134.8986602 125.118311)
(0 -78.4294562 66.53596056)
(0 -43.33583854 33.86791969)
(0 -22.81099505 16.52278396)
(0 -11.4620285 7.735079016)
(0 -5.507890755 3.478769419)
(0 -2.535259027 1.504643197)
(0 -1.119481397 0.6265209795)
(0 -0.4748575497 0.2513979129)
(0 -0.1937380901 0.0973029181)
(0 -0.07611854329 0.03636035552)
(0 -0.02883223755 0.0131297044)
(0 -0.01054000902 0.004585429707)
(0 -0.003722348402 0.001550116833)
(0 -0.0012712246 0.0005076449153)
(0 -0.0004202028807 0.0001611746056)
(0 -0.0001345609246 4.964765977e-05)
(0 -4.177768843e-05 1.484956989e-05)
(0 -1.258098037e-05 4.319962146e-06)
(0 -3.678052344e-06 1.217374575e-06)
(0 -1.045144542e-06 3.319898579e-07)
(0 -2.92132252e-07 8.555032767e-08)
(0 -8.592678676e-08 1.938764301e-08)
(0 -2.150522538e-08 7.529181753e-10)
(0 -4.611623824e-09 2.352869298e-10)
(0 -2.541098842e-09 -9.411477192e-11)
(0 5.223369841e-09 -1.082319877e-09)
(0 7.482124367e-09 1.835238052e-09)
(0 1.077614138e-08 1.929352824e-09)
(0 8.187985157e-09 1.74112328e-09)
(0 -9.411477192e-10 4.235164736e-10)
(0 -3.011672701e-09 -1.411721579e-10)
(0 -6.682148806e-09 4.705738596e-11)
(0 282.8672795 5574.163562)
(0 1017.351217 5617.407294)
(0 1749.127646 5911.735542)
(0 450.1176683 7193.928954)
(0 -5819.085338 10214.22617)
(0 -19262.74068 13595.71283)
(0 -40005.08627 14480.56716)
(0 -26708.98523 6656.39565)
(0 -1404.721649 6307.152902)
(0 -1559.674433 5520.882894)
(0 -1763.51613 4471.521541)
(0 -1710.708324 3383.927249)
(0 -1483.654308 2409.18156)
(0 -1176.273627 1621.492372)
(0 -864.0765893 1035.404508)
(0 -593.3396738 628.9787327)
(0 -383.2162012 364.2722124)
(0 -233.8559147 201.4874744)
(0 -135.3128732 106.6002533)
(0 -74.4454611 54.01782129)
(0 -39.03572885 26.248997)
(0 -19.54713279 12.2454965)
(0 -9.364123811 5.490251924)
(0 -4.298358012 2.368120197)
(0 -1.893288968 0.9836428162)
(0 -0.8012897626 0.3938270896)
(0 -0.3262577677 0.1521274537)
(0 -0.1279492918 0.0567454148)
(0 -0.04838373711 0.020457426)
(0 -0.01766034552 0.007133989214)
(0 -0.006228282013 0.002408402754)
(0 -0.002124305739 0.0007877427115)
(0 -0.0007013608798 0.0002498189094)
(0 -0.0002243446288 7.687383979e-05)
(0 -6.957716858e-05 2.297214528e-05)
(0 -2.093912503e-05 6.67523137e-06)
(0 -6.122354143e-06 1.883613045e-06)
(0 -1.739852731e-06 5.171136143e-07)
(0 -4.839852146e-07 1.320900824e-07)
(0 -1.344429517e-07 3.242253893e-08)
(0 -3.491658038e-08 7.717411297e-09)
(0 -8.517386859e-09 1.552893737e-09)
(0 -2.917557929e-09 -1.411721579e-10)
(0 6.305689718e-09 -3.294017017e-10)
(0 9.31736242e-09 1.176434649e-09)
(0 1.124671524e-08 3.858705649e-09)
(0 7.011550508e-09 1.411721579e-09)
(0 -2.305811912e-09 5.176312455e-10)
(0 -3.294017017e-09 2.823443158e-10)
(0 -6.917435736e-09 4.705738596e-11)
(0 310.5626046 6114.604603)
(0 1188.074451 6181.977452)
(0 2398.066837 6416.048595)
(0 2570.917334 7363.215324)
(0 -2191.034726 10607.31349)
(0 -16386.29102 15457.86958)
(0 -43017.37055 18549.00117)
(0 -30795.40077 11392.35735)
(0 -2129.264556 10802.95658)
(0 -2749.965972 9306.48538)
(0 -3133.960494 7419.549349)
(0 -3021.074406 5534.500501)
(0 -2594.850505 3890.353251)
(0 -2036.87398 2589.489594)
(0 -1482.505092 1637.732815)
(0 -1009.63805 986.6813682)
(0 -647.380813 567.374244)
(0 -392.5706194 311.900455)
(0 -225.8991093 164.1377063)
(0 -123.6870948 82.78891905)
(0 -64.58331984 40.06721856)
(0 -32.22077357 18.62564716)
(0 -15.38526706 8.32472884)
(0 -7.041868135 3.580810574)
(0 -3.093774504 1.483709269)
(0 -1.306372912 0.5927418017)
(0 -0.5308197649 0.2285150845)
(0 -0.207788571 0.08508843835)
(0 -0.07844366318 0.03062647568)
(0 -0.02858903227 0.01066470738)
(0 -0.01006859491 0.003595608557)
(0 -0.003429808492 0.001174629763)
(0 -0.001131071705 0.0003721010561)
(0 -0.0003614076887 0.000114386482)
(0 -0.0001119762498 3.414714506e-05)
(0 -3.366965377e-05 9.905720916e-06)
(0 -9.836028928e-06 2.794267578e-06)
(0 -2.796620448e-06 7.652001531e-07)
(0 -7.768233274e-07 2.021585301e-07)
(0 -2.103465152e-07 4.969259957e-08)
(0 -5.237487057e-08 1.218786296e-08)
(0 -1.247020728e-08 2.44698407e-09)
(0 -4.42339428e-09 -4.705738596e-11)
(0 6.493919262e-09 -9.411477192e-11)
(0 1.17172891e-08 0)
(0 1.101142831e-08 2.588156228e-09)
(0 4.799853368e-09 -9.411477192e-11)
(0 -2.070524982e-09 -1.082319877e-09)
(0 -3.435189175e-09 1.882295438e-10)
(0 -7.011550508e-09 -4.705738596e-11)
(0 350.2401293 6682.460261)
(0 1318.795209 6775.977367)
(0 2930.365517 7016.745161)
(0 4641.382563 7837.899166)
(0 2275.568917 10794.77623)
(0 -11321.05301 17480.57133)
(0 -44070.59851 23984.92537)
(0 -34455.02982 19153.82948)
(0 -3490.593614 18063.70152)
(0 -4943.081665 15215.94022)
(0 -5535.501009 11893.5776)
(0 -5239.904422 8722.816507)
(0 -4428.665215 6043.949386)
(0 -3428.894063 3974.28784)
(0 -2466.884815 2487.787703)
(0 -1663.698245 1485.769996)
(0 -1057.997114 848.0361624)
(0 -637.0924524 463.2348846)
(0 -364.4244092 242.4517926)
(0 -198.5159488 121.7158356)
(0 -103.1990007 58.66705172)
(0 -51.28962251 27.17533291)
(0 -24.4089604 12.10832243)
(0 -11.13937758 5.194068345)
(0 -4.881357741 2.146964815)
(0 -2.056483947 0.8558712096)
(0 -0.8339111311 0.3293248049)
(0 -0.3258379006 0.1224144432)
(0 -0.1228074681 0.0439932078)
(0 -0.04469121255 0.0152977816)
(0 -0.01571835958 0.005151078638)
(0 -0.005347813287 0.001680827287)
(0 -0.001761604208 0.0005318922687)
(0 -0.0005622984928 0.0001633462099)
(0 -0.0001740578827 4.871667644e-05)
(0 -5.229195546e-05 1.411688639e-05)
(0 -1.526296902e-05 3.980301934e-06)
(0 -4.332008837e-06 1.091307838e-06)
(0 -1.199539825e-06 2.926498833e-07)
(0 -3.244136188e-07 7.74093999e-08)
(0 -8.21151385e-08 2.004644642e-08)
(0 -2.070524982e-08 3.199902245e-09)
(0 -5.458656771e-09 9.882051051e-10)
(0 6.39980449e-09 0)
(0 1.195257603e-08 -1.317606807e-09)
(0 1.110554309e-08 -2.305811912e-09)
(0 3.435189175e-09 -3.764590877e-10)
(0 -2.117582368e-09 -1.129377263e-09)
(0 -2.258754526e-09 0)
(0 -7.011550508e-09 0)
(0 404.0797099 7276.770223)
(0 1522.359351 7398.371078)
(0 3459.988636 7760.728626)
(0 6348.948399 8554.788258)
(0 7451.637435 11077.89497)
(0 -3196.141874 19176.4962)
(0 -41344.11239 30565.75206)
(0 -36716.62462 31274.56406)
(0 -6067.15382 29320.01418)
(0 -8920.089895 24016.99375)
(0 -9627.084207 18346.06832)
(0 -8870.702616 13202.75377)
(0 -7343.379172 9006.18354)
(0 -5593.035663 5845.924407)
(0 -3971.022936 3620.111099)
(0 -2649.38959 2142.585671)
(0 -1669.915924 1213.668455)
(0 -998.1549893 658.7081412)
(0 -567.4181582 342.8773027)
(0 -307.4718356 171.326242)
(0 -159.1238225 82.24644451)
(0 -78.77950286 37.96456854)
(0 -37.36653163 16.86413539)
(0 -17.00322575 7.214868213)
(0 -7.431971639 2.975257633)
(0 -3.124012922 1.183597454)
(0 -1.264276531 0.4545854732)
(0 -0.4931201681 0.168695839)
(0 -0.1855603247 0.06053561788)
(0 -0.06743116144 0.02102182519)
(0 -0.02368554936 0.007069862515)
(0 -0.008048994768 0.002304381979)
(0 -0.002648552783 0.0007284782631)
(0 -0.0008445832809 0.0002235110072)
(0 -0.0002612055733 6.660323591e-05)
(0 -7.840598122e-05 1.928491674e-05)
(0 -2.286165453e-05 5.433151668e-06)
(0 -6.484272498e-06 1.491013274e-06)
(0 -1.790674708e-06 4.000818954e-07)
(0 -4.829499521e-07 1.071496678e-07)
(0 -1.265843682e-07 3.101081735e-08)
(0 -3.157550598e-08 6.446861876e-09)
(0 -7.623296525e-09 3.058730087e-09)
(0 4.235164736e-09 0)
(0 9.364419806e-09 -3.529303947e-09)
(0 1.195257603e-08 -3.058730087e-09)
(0 5.929230631e-09 -2.070524982e-09)
(0 -1.694065895e-09 1.882295438e-10)
(0 -2.258754526e-09 0)
(0 -7.011550508e-09 0)
(0 471.8409841 7864.558873)
(0 1802.753612 8028.557455)
(0 4086.782697 8528.514482)
(0 7958.548904 9553.237989)
(0 12897.27686 11872.18471)
(0 8166.804087 19632.55107)
(0 -31972.53065 37526.47395)
(0 -35700.7677 48998.89722)
(0 -10748.16392 45897.16921)
(0 -15917.02752 36406.84056)
(0 -16349.74098 27112.57638)
(0 -14579.78921 19118.44976)
(0 -11785.49458 12828.57839)
(0 -8814.966504 8215.955336)
(0 -6170.223552 5031.901828)
(0 -4070.140888 2951.064068)
(0 -2541.874644 1658.939128)
(0 -1507.883605 894.6320304)
(0 -851.8063084 463.1708691)
(0 -459.1468071 230.3709795)
(0 -236.5606742 110.1563043)
(0 -116.6719316 50.67519918)
(0 -55.15866072 22.44407639)
(0 -25.02825535 9.577450924)
(0 -10.9126285 3.940639612)
(0 -4.577156107 1.564522961)
(0 -1.848812746 0.5998280527)
(0 -0.7198877559 0.2222449428)
(0 -0.2704814819 0.07963900012)
(0 -0.09815696787 0.02762062091)
(0 -0.03443580274 0.009278439844)
(0 -0.01168919763 0.00302109759)
(0 -0.003842475133 0.0009541363577)
(0 -0.00122417352 0.0002924948292)
(0 -0.0003782840672 8.709098649e-05)
(0 -0.0001134619926 2.520153599e-05)
(0 -3.305687249e-05 7.090512801e-06)
(0 -9.365078609e-06 1.942717122e-06)
(0 -2.583356374e-06 5.195605984e-07)
(0 -6.934376395e-07 1.377840261e-07)
(0 -1.828650018e-07 3.792825308e-08)
(0 -4.875145185e-08 8.423272087e-09)
(0 -1.185846126e-08 2.823443158e-09)
(0 -1.882295438e-10 1.411721579e-10)
(0 8.84678856e-09 -4.046935192e-09)
(0 1.261137944e-08 -1.835238052e-09)
(0 6.682148806e-09 -2.44698407e-09)
(0 0 1.882295438e-10)
(0 -2.494041456e-09 -2.823443158e-10)
(0 -7.011550508e-09 0)
(0 568.0782918 8388.04526)
(0 2186.31496 8618.366797)
(0 4984.669171 9280.282109)
(0 9692.618626 10736.31442)
(0 17530.95052 13394.39461)
(0 22458.14737 20389.2113)
(0 -11977.76624 43442.96582)
(0 -28345.92937 72842.73771)
(0 -18659.21049 68781.06911)
(0 -27704.68272 52691.1284)
(0 -26915.47501 38198.24757)
(0 -23154.7006 26371.71755)
(0 -18245.87359 17399.70766)
(0 -13389.71223 10993.14002)
(0 -9235.914204 6658.820908)
(0 -6022.35229 3869.966268)
(0 -3726.347962 2159.25066)
(0 -2193.923248 1157.185614)
(0 -1231.679209 595.9644677)
(0 -660.4864004 295.1062308)
(0 -338.8196028 140.5777991)
(0 -166.4917308 64.46040987)
(0 -78.46427988 28.46962769)
(0 -35.50666253 12.11913771)
(0 -15.4448996 4.975801186)
(0 -6.464824482 1.971805591)
(0 -2.60655455 0.7547248812)
(0 -1.013309221 0.2792242515)
(0 -0.3801846466 0.09992502755)
(0 -0.1377917217 0.03461523472)
(0 -0.04828507269 0.01161567117)
(0 -0.01637329825 0.003778441842)
(0 -0.005377155543 0.001192267624)
(0 -0.001711628652 0.0003651983493)
(0 -0.0005284988665 0.0001086588453)
(0 -0.0001584063608 3.142318122e-05)
(0 -4.612056752e-05 8.835212443e-06)
(0 -1.305513059e-05 2.419926073e-06)
(0 -3.595654861e-06 6.451567615e-07)
(0 -9.646293548e-07 1.679478105e-07)
(0 -2.559921796e-07 3.966937636e-08)
(0 -6.663325852e-08 8.423272087e-09)
(0 -1.581128168e-08 1.835238052e-09)
(0 -2.729328386e-09 9.411477192e-11)
(0 7.482124367e-09 -1.552893737e-09)
(0 1.355252716e-08 -2.352869298e-09)
(0 7.952698227e-09 -9.882051051e-10)
(0 5.176312455e-10 9.411477192e-11)
(0 -2.541098842e-09 9.411477192e-11)
(0 -6.729206192e-09 9.411477192e-11)
(0 702.1625206 8771.986308)
(0 2694.990461 9082.158785)
(0 6204.730323 9945.811934)
(0 12072.66141 11888.63975)
(0 22550.17374 15633.62512)
(0 38215.37529 23003.95801)
(0 20480.99576 46577.14196)
(0 -10362.66441 101824.3303)
(0 -30899.77324 97861.52401)
(0 -46499.84905 72318.25629)
(0 -42669.15183 51009.36998)
(0 -35378.32912 34474.36452)
(0 -27164.07211 22366.95733)
(0 -19555.85325 13943.34299)
(0 -13293.3973 8355.064839)
(0 -8569.711136 4813.266341)
(0 -5254.655298 2666.236932)
(0 -3071.169798 1420.366402)
(0 -1713.885691 727.8601717)
(0 -914.5334757 358.9051608)
(0 -467.2064952 170.3606128)
(0 -228.780103 77.87933826)
(0 -107.4999329 34.3061889)
(0 -48.52208185 14.57055966)
(0 -21.05996061 5.970459654)
(0 -8.798232412 2.361862656)
(0 -3.541394086 0.9026381734)
(0 -1.37468761 0.3334936701)
(0 -0.5150904987 0.1192015352)
(0 -0.1864663242 0.04124795459)
(0 -0.06527259561 0.01382781795)
(0 -0.02211260123 0.004494035275)
(0 -0.007255718578 0.001416929561)
(0 -0.002307782346 0.0004336920216)
(0 -0.0007120592353 0.0001289511195)
(0 -0.0002132856254 3.726973202e-05)
(0 -6.206012764e-05 1.04755388e-05)
(0 -1.755518135e-05 2.866735953e-06)
(0 -4.835334637e-06 7.640237184e-07)
(0 -1.298877967e-06 1.969351602e-07)
(0 -3.423895402e-07 4.95984848e-08)
(0 -8.649147539e-08 1.214080558e-08)
(0 -2.023467596e-08 2.635213614e-09)
(0 -3.670476105e-09 4.235164736e-10)
(0 6.493919262e-09 1.882295438e-10)
(0 1.322312545e-08 -1.411721579e-10)
(0 8.987960718e-09 9.882051051e-10)
(0 1.082319877e-09 -4.705738596e-11)
(0 -2.44698407e-09 4.705738596e-10)
(0 -7.152722666e-09 -1.411721579e-10)
(0 878.2507693 8928.135766)
(0 3360.140587 9318.095193)
(0 7791.150136 10411.79126)
(0 15380.43181 12858.1505)
(0 28646.26878 17965.94207)
(0 53401.66421 27357.46429)
(0 66842.60605 50122.80583)
(0 22938.45269 132833.6495)