/*--------------------------------*- C++ -*----------------------------------*\
  =========                 |
  \\      /  F ield         | OpenFOAM: The Open Source CFD Toolbox
   \\    /   O peration     | Website:  https://openfoam.org
    \\  /    A nd           | Version:  6
     \\/     M anipulation  |
\*---------------------------------------------------------------------------*/
FoamFile
{
    version     2.0;
    format      ascii;
    class       volVectorField;
    location    "0.13";
    object      Marangoni;
}
// * * * * * * * * * * * * * * * * * * * * * * * * * * * * * * * * * * * * * //

dimensions      [1 -2 -2 0 0 0 0];

internalField   nonuniform List<vector> 
2500
(
(-0 5.173748841e-12 -9.444710401e-11)
(-0 1.961636897e-11 -1.352366722e-10)
(-0 4.522101415e-12 -2.385373927e-11)
(-0 1.968236996e-11 -9.588820043e-11)
(-0 1.502260908e-11 -6.424522161e-11)
(-0 1.746941732e-11 -5.767780729e-11)
(-0 3.033953986e-07 -5.621697708e-07)
(-0 6.289822601e-06 -11.50359685)
(-0 2.085768466e-07 -5.319274525)
(-0 2.102934734e-09 -8.185002293e-09)
(-0 1.391333856e-14 -5.213836978e-14)
(-0 8.56685831e-15 -3.08166388e-14)
(-0 8.431435921e-15 -2.916060461e-14)
(-0 4.998099644e-15 -1.668490676e-14)
(-0 3.688608054e-15 -1.193504424e-14)
(-0 2.030674525e-15 -6.390094509e-15)
(-0 1.444228663e-15 -4.428090292e-15)
(-0 8.438235545e-16 -2.520979881e-15)
(-0 2.097721792e-16 -6.096734926e-16)
(-0 4.318125421e-17 -1.217451035e-16)
(-0 4.406930888e-17 -1.201265536e-16)
(-0 3.317700443e-17 -8.714802486e-17)
(-0 1.501268598e-17 -3.789560657e-17)
(-0 1.6456217e-17 -3.983638954e-17)
(-0 4.841126205e-18 -1.122433453e-17)
(-0 9.698968775e-19 -2.152547437e-18)
(-0 2.601892237e-19 -5.527504054e-19)
(-0 1.388991068e-19 -2.825559197e-19)
(-0 2.007163248e-20 -3.912716111e-20)
(-0 2.886810227e-20 -5.399174364e-20)
(-0 4.307711985e-21 -7.726707844e-21)
(-0 4.664437064e-21 -8.006914336e-21)
(-0 1.017149942e-21 -1.669839164e-21)
(-0 6.859157897e-22 -1.093814969e-21)
(-0 8.65113086e-23 -1.595174582e-22)
(-0 9.303201169e-24 -2.270322487e-23)
(-0 6.582588453e-24 -2.408947264e-23)
(-0 1.840982797e-23 -2.872455427e-24)
(-0 1.287309247e-23 1.333284577e-23)
(-0 8.719190445e-25 5.605193857e-24)
(-0 -0 0)
(-0 -0 0)
(-0 -0 0)
(-0 -0 0)
(-0 -0 -0)
(-0 -0 -0)
(-0 0 -0)
(-0 -0 -0)
(-0 0 -0)
(-0 0 -0)
(-0 3.33317558e-13 -2.748241653e-12)
(-0 3.761033725e-11 -1.153951568e-10)
(-0 5.832863488e-11 -1.244018672e-10)
(-0 2.246374965e-11 -3.831057106e-11)
(-0 5.978854747e-11 -8.422445745e-11)
(-0 4.284885524e-11 -4.673466709e-11)
(-0 4.670657952e-07 -2.921528618e-07)
(-0 1.716639484e-05 -11.21791662)
(-0 5.630309746e-07 -5.524601637)
(-0 2.189277594e-09 -3.101220389e-09)
(-0 1.056213908e-13 -1.458631514e-13)
(-0 7.03433779e-14 -9.52700723e-14)
(-0 4.205260904e-14 -5.62040934e-14)
(-0 1.117730894e-14 -1.482060167e-14)
(-0 9.389228453e-15 -1.239337e-14)
(-0 1.086536303e-14 -1.428924549e-14)
(-0 2.864599676e-15 -3.74668309e-15)
(-0 3.054781477e-15 -3.95719974e-15)
(-0 1.289990493e-15 -1.645685984e-15)
(-0 1.117944579e-16 -1.395668817e-16)
(-0 6.777684597e-17 -8.22967288e-17)
(-0 1.291213575e-16 -1.516794389e-16)
(-0 1.246397108e-16 -1.410546264e-16)
(-0 5.100370021e-17 -5.544027159e-17)
(-0 3.676796278e-17 -3.831336042e-17)
(-0 5.126037507e-18 -5.115427266e-18)
(-0 8.173588294e-19 -7.809077324e-19)
(-0 7.070192739e-19 -6.468401537e-19)
(-0 3.023933539e-19 -2.651004737e-19)
(-0 1.348687351e-19 -1.134009795e-19)
(-0 4.19677106e-20 -3.385615125e-20)
(-0 2.329647771e-20 -1.8076852e-20)
(-0 8.942250035e-21 -6.683844425e-21)
(-0 3.405495065e-21 -2.473051441e-21)
(-0 1.422204507e-21 -9.765753498e-22)
(-0 9.748188437e-23 -6.978609666e-23)
(-0 3.770839441e-23 -1.722718526e-23)
(-0 3.46680191e-23 1.566916118e-24)
(-0 3.562123625e-23 5.897555671e-24)
(-0 9.77656078e-24 2.98728246e-24)
(-0 0 0)
(-0 -0 0)
(-0 -0 0)
(-0 -0 0)
(-0 -0 -0)
(-0 -0 -0)
(-0 -0 -0)
(-0 -0 -0)
(-0 0 -0)
(-0 0 -0)
(-0 1.081309612e-11 -6.162320166e-11)
(-0 5.811757035e-12 -1.216345261e-11)
(-0 6.644998438e-11 -9.413623853e-11)
(-0 9.17259792e-11 -1.022460711e-10)
(-0 3.208261808e-11 -2.917562925e-11)
(-0 3.446387465e-11 -2.390622841e-11)
(-0 3.837398496e-07 -1.545222918e-07)
(-0 2.791107627e-05 -12.15231369)
(-0 9.058369208e-07 -6.285198615)
(-0 2.477425216e-09 -2.495236969e-09)
(-0 2.990008147e-13 -3.041209385e-13)
(-0 8.848250174e-14 -9.168279148e-14)
(-0 3.023162411e-14 -3.205841718e-14)
(-0 6.81056493e-14 -7.392688003e-14)
(-0 5.011369378e-14 -5.546942297e-14)
(-0 4.111407165e-14 -4.608102811e-14)
(-0 1.750985602e-14 -1.969324537e-14)
(-0 7.947763396e-15 -8.881595151e-15)
(-0 3.528906002e-15 -3.880741624e-15)
(-0 1.587405179e-15 -1.703193044e-15)
(-0 1.403549042e-15 -1.458923467e-15)
(-0 7.309712914e-16 -7.321170187e-16)
(-0 3.43674367e-16 -3.3039579e-16)
(-0 1.55966696e-16 -1.435666747e-16)
(-0 5.731291456e-17 -5.044512367e-17)
(-0 2.304911983e-17 -1.93886305e-17)
(-0 2.113170894e-18 -1.69905358e-18)
(-0 1.03682777e-18 -7.972656297e-19)
(-0 4.122669115e-19 -3.034606395e-19)
(-0 9.349806168e-20 -6.594647071e-20)
(-0 7.126237777e-20 -4.822295476e-20)
(-0 5.278960226e-20 -3.433098939e-20)
(-0 2.425414406e-20 -1.517680577e-20)
(-0 3.282350947e-21 -1.978585964e-21)
(-0 3.135757338e-21 -1.83287719e-21)
(-0 8.080393965e-22 -4.887986203e-22)
(-0 5.947649155e-23 -2.756558855e-23)
(-0 4.950156877e-23 -2.649107391e-23)
(-0 3.602664562e-23 -1.200888187e-23)
(-0 3.500758608e-23 -2.709491252e-23)
(-0 4.039202893e-24 -3.680162636e-24)
(-0 -0 -0)
(-0 -0 -0)
(-0 -0 0)
(-0 -0 0)
(-0 -0 -0)
(-0 -0 0)
(-0 -0 0)
(-0 -0 0)
(-0 0 0)
(-0 1.138708433e-11 -5.575234528e-11)
(-0 3.819541159e-11 -6.764559331e-11)
(-0 1.257807636e-11 -1.478258615e-11)
(-0 9.248298774e-11 -8.38705673e-11)
(-0 1.029944614e-10 -7.57405714e-11)
(-0 1.661188232e-12 -9.04637372e-13)
(-0 5.328637446e-07 -1.655235142e-07)
(-0 3.939516369e-05 -14.21600857)
(-0 1.277819696e-06 -7.958194327)
(-0 3.772917695e-09 -3.552416557e-09)
(-0 3.310570459e-13 -3.283496101e-13)
(-0 1.457705735e-13 -1.522920105e-13)
(-0 2.257987636e-13 -2.467653855e-13)
(-0 1.805683984e-13 -2.039954381e-13)
(-0 7.047486364e-14 -8.113636124e-14)
(-0 5.985366108e-14 -6.919738052e-14)
(-0 3.8069937e-14 -4.359935769e-14)
(-0 1.262246299e-14 -1.415334307e-14)
(-0 4.72130217e-15 -5.134540837e-15)
(-0 3.328244039e-15 -3.485606129e-15)
(-0 1.888399206e-15 -1.894859192e-15)
(-0 1.403822925e-15 -1.345154998e-15)
(-0 7.139349232e-16 -6.52022195e-16)
(-0 3.230677776e-16 -2.809805056e-16)
(-0 1.555083109e-16 -1.287939118e-16)
(-0 2.544671116e-17 -2.007972238e-17)
(-0 2.199462213e-17 -1.655076273e-17)
(-0 6.772065306e-18 -4.865177804e-18)
(-0 1.027806216e-18 -7.058819586e-19)
(-0 3.968651316e-19 -2.609174215e-19)
(-0 5.518824664e-20 -3.478189431e-20)
(-0 1.724073256e-19 -1.042769691e-19)
(-0 4.392378303e-20 -2.553557407e-20)
(-0 3.82706067e-21 -2.140909805e-21)
(-0 2.736512059e-21 -1.478834818e-21)
(-0 1.965133962e-21 -1.00995328e-21)
(-0 2.811921537e-22 -1.444229523e-22)
(-0 5.188916815e-23 -2.371621489e-23)
(-0 3.328181508e-23 -2.130036165e-23)
(-0 1.96914546e-23 -3.722165198e-23)
(-0 2.307843213e-23 -3.505807629e-23)
(-0 4.757494786e-25 -1.465308394e-24)
(-0 -0 -0)
(-0 -0 -0)
(-0 -0 0)
(-0 -0 0)
(-0 0 0)
(-0 -0 0)
(-0 0 0)
(-0 0 0)
(-0 1.5543648e-12 -7.856688747e-12)
(-0 2.833318012e-11 -5.002826974e-11)
(-0 5.582847198e-11 -6.24632496e-11)
(-0 1.140740158e-11 -9.408836803e-12)
(-0 1.248945649e-10 -8.085081232e-11)
(-0 8.640865133e-11 -4.089522166e-11)
(-0 1.131836623e-06 -2.928057884e-07)
(-0 5.157927712e-05 -17.97846957)
(-0 1.681647377e-06 -11.27103278)
(-0 7.665965992e-09 -8.078496849e-09)
(-0 2.304785452e-13 -2.625897548e-13)
(-0 6.008130679e-13 -7.266115333e-13)
(-0 3.834584849e-13 -4.812746221e-13)
(-0 6.59746993e-14 -8.400771953e-14)
(-0 8.021527206e-14 -1.015676854e-13)
(-0 6.45290715e-14 -7.994036878e-14)
(-0 3.015276289e-14 -3.610187206e-14)
(-0 1.102247616e-14 -1.264406369e-14)
(-0 2.846383227e-15 -3.110097701e-15)
(-0 4.290254162e-15 -4.449198569e-15)
(-0 5.284904381e-15 -5.191976411e-15)
(-0 1.834406275e-15 -1.706091413e-15)
(-0 7.202618791e-16 -6.343122021e-16)
(-0 6.952186015e-17 -5.802245368e-17)
(-0 1.203115925e-16 -9.527368138e-17)
(-0 9.650473758e-17 -7.261743794e-17)
(-0 3.807908257e-17 -2.727100348e-17)
(-0 2.461543852e-17 -1.680618242e-17)
(-0 8.567209522e-18 -5.585648346e-18)
(-0 1.378596012e-18 -8.59726376e-19)
(-0 7.796414363e-19 -4.657628981e-19)
(-0 3.562568972e-19 -2.041969328e-19)
(-0 3.90187991e-20 -2.149574871e-20)
(-0 5.693235306e-21 -3.015687927e-21)
(-0 7.83878012e-22 -3.99755021e-22)
(-0 3.548040664e-21 -1.743319997e-21)
(-0 8.102263518e-22 -4.147747769e-22)
(-0 1.534706926e-22 -5.888372058e-23)
(-0 2.558148197e-23 -1.657165184e-23)
(-0 1.095196106e-23 -4.640661468e-24)
(-0 3.091455476e-23 -1.472121655e-24)
(-0 6.311033084e-24 1.107198787e-24)
(-0 -0 0)
(-0 -0 0)
(-0 -0 0)
(-0 -0 0)
(-0 -0 -0)
(-0 -0 -0)
(-0 0 0)
(-0 0 -0)
(-0 1.575465427e-14 -9.903124434e-14)
(-0 2.485504544e-12 -5.046335159e-12)
(-0 4.080887047e-11 -4.828256275e-11)
(-0 8.149690845e-11 -6.641136891e-11)
(-0 4.194024797e-11 -2.511020646e-11)
(-0 1.643632549e-10 -7.130713279e-11)
(-0 1.788904706e-06 -4.02250233e-07)
(-0 6.462970828e-05 -24.89306107)
(-0 2.134884674e-06 -17.68898221)
(-0 1.270449159e-08 -1.677284407e-08)
(-0 1.627044128e-12 -2.30378519e-12)
(-0 1.117783128e-12 -1.636497479e-12)
(-0 8.361535451e-14 -1.225699274e-13)
(-0 8.220357722e-14 -1.176869107e-13)
(-0 4.227600145e-14 -5.808729952e-14)
(-0 6.408123112e-14 -8.355197438e-14)
(-0 8.973043213e-14 -1.102788846e-13)
(-0 2.90350576e-14 -3.351881608e-14)
(-0 3.21903875e-15 -3.486045362e-15)
(-0 5.007146219e-15 -5.08723906e-15)
(-0 4.26104811e-15 -4.065672366e-15)
(-0 4.998479688e-15 -4.486027049e-15)
(-0 4.795708159e-16 -4.056136967e-16)
(-0 1.103943096e-16 -8.817517038e-17)
(-0 9.948155405e-17 -7.519970962e-17)
(-0 1.488106459e-16 -1.066880835e-16)
(-0 8.348413584e-17 -5.688647189e-17)
(-0 1.481372416e-17 -9.613370976e-18)
(-0 1.628325431e-17 -1.008330066e-17)
(-0 6.284054414e-18 -3.720069599e-18)
(-0 2.225546374e-18 -1.26167078e-18)
(-0 6.161793464e-19 -3.350810205e-19)
(-0 7.094408855e-20 -3.706655886e-20)
(-0 5.121454408e-21 -2.572461775e-21)
(-0 5.292420569e-21 -2.559630462e-21)
(-0 4.485414089e-21 -2.103721376e-21)
(-0 2.254764113e-21 -1.038434905e-21)
(-0 2.511930619e-22 -1.167115362e-22)
(-0 7.176768273e-23 -2.604472357e-23)
(-0 2.933136559e-23 5.999597508e-24)
(-0 3.229494552e-23 1.28445806e-23)
(-0 1.938833196e-24 1.017887428e-24)
(-0 -0 0)
(-0 -0 0)
(-0 -0 0)
(-0 -0 0)
(-0 -0 -0)
(-0 -0 -0)
(-0 0 -0)
(-0 0 -0)
(-0 2.955750309e-14 -3.091470566e-13)
(-0 7.985612289e-14 -2.226185064e-13)
(-0 2.901883088e-12 -4.0311513e-12)
(-0 6.323919576e-11 -5.499849893e-11)
(-0 1.266459731e-10 -7.544574292e-11)
(-0 9.712022448e-11 -4.031329856e-11)
(-0 2.538171383e-06 -5.52465357e-07)
(-0 7.840090171e-05 -38.27154565)
(-0 2.64353326e-06 -29.99257009)
(-0 1.816324634e-08 -3.150839337e-08)
(-0 2.029128792e-12 -3.602503187e-12)
(-0 4.459879129e-13 -7.762078514e-13)
(-0 3.536055718e-13 -5.858571124e-13)
(-0 3.130202081e-13 -4.852558675e-13)
(-0 1.684779382e-13 -2.422498179e-13)
(-0 2.551490488e-13 -3.391313939e-13)
(-0 1.439223179e-13 -1.767944421e-13)
(-0 7.602812941e-14 -8.645055291e-14)
(-0 2.240152865e-14 -2.363843326e-14)
(-0 5.101995508e-15 -5.010920039e-15)
(-0 7.884183188e-15 -7.229875728e-15)
(-0 1.219614685e-14 -1.047504484e-14)
(-0 2.737296299e-15 -2.208716067e-15)
(-0 9.208460062e-17 -7.000969223e-17)
(-0 2.499049054e-16 -1.795144922e-16)
(-0 8.851648418e-17 -6.02325336e-17)
(-0 1.82656907e-16 -1.18027146e-16)
(-0 4.145061091e-17 -2.549189763e-17)
(-0 6.144105153e-18 -3.603919589e-18)
(-0 1.342046803e-17 -7.522904794e-18)
(-0 6.374141181e-18 -3.420857226e-18)
(-0 8.206667729e-19 -4.224044063e-19)
(-0 4.546385194e-20 -2.247751937e-20)
(-0 4.426586826e-20 -2.105085276e-20)
(-0 1.57504858e-20 -7.20879669e-21)
(-0 9.243207903e-21 -4.085032802e-21)
(-0 3.416743554e-21 -1.456817732e-21)
(-0 4.575211837e-22 -1.962955078e-22)
(-0 2.028439189e-22 -6.408530404e-23)
(-0 6.968432363e-23 -1.209614674e-23)
(-0 2.526603614e-23 -2.160910986e-24)
(-0 5.642041838e-24 -4.088436115e-24)
(-0 -1.193698692e-25 1.020698881e-25)
(-0 -0 0)
(-0 -0 0)
(-0 -0 0)
(-0 -0 -0)
(-0 0 0)
(-0 0 0)
(-0 0 0)
(-0 1.398541301e-14 -6.295228322e-13)
(-0 2.379579475e-14 -1.290545785e-13)
(-0 1.039642056e-13 -1.954768586e-13)
(-0 4.398154219e-12 -4.450600646e-12)
(-0 7.974125492e-11 -5.133888014e-11)
(-0 1.405311234e-10 -6.002008049e-11)
(-0 3.911759416e-06 -9.39059789e-07)
(-0 9.501883081e-05 -63.58785421)
(-0 3.277451482e-06 -53.05047501)
(-0 3.183448919e-08 -7.172186639e-08)
(-0 2.059125545e-12 -4.407942965e-12)
(-0 1.274017144e-12 -2.506803853e-12)
(-0 8.746067948e-13 -1.557957011e-12)
(-0 2.691172503e-13 -4.322484273e-13)
(-0 9.635004532e-13 -1.39771873e-12)
(-0 2.911118721e-13 -3.830518857e-13)
(-0 4.034970082e-13 -4.841121917e-13)
(-0 1.565040055e-13 -1.721455446e-13)
(-0 2.519787208e-14 -2.554313176e-14)
(-0 5.851564944e-14 -5.493514761e-14)
(-0 4.862580155e-14 -4.246914184e-14)
(-0 4.556156319e-15 -3.717299703e-15)
(-0 1.021392639e-14 -7.814138814e-15)
(-0 2.183718432e-15 -1.57194853e-15)
(-0 3.064643312e-16 -2.08228026e-16)
(-0 1.544507575e-16 -9.933782972e-17)
(-0 2.427536896e-16 -1.481832941e-16)
(-0 1.045512785e-16 -6.071853752e-17)
(-0 4.972180471e-17 -2.753360816e-17)
(-0 2.64950772e-17 -1.401831412e-17)
(-0 5.755767257e-18 -2.915197056e-18)
(-0 2.669858179e-18 -1.296750188e-18)
(-0 4.765085464e-19 -2.223057805e-19)
(-0 9.529162894e-20 -4.275628696e-20)
(-0 8.22432421e-21 -3.551058146e-21)
(-0 2.261921661e-20 -9.412724653e-21)
(-0 5.856664848e-21 -2.366705128e-21)
(-0 7.050089397e-22 -2.601607296e-22)
(-0 3.11117562e-22 -9.867158925e-23)
(-0 1.145120345e-22 -2.586693165e-23)
(-0 3.005352706e-23 -1.397838468e-24)
(-0 6.019041068e-24 -1.021087324e-24)
(-0 8.649990521e-27 4.497995071e-25)
(-0 -0 0)
(-0 -0 0)
(-0 -0 0)
(-0 -0 -0)
(-0 0 -0)
(-0 0 0)
(-0 0 -0)
(-0 -2.426253954e-14 -7.586343989e-13)
(-0 4.120488416e-15 -4.491384413e-13)
(-0 6.902712938e-14 -2.284695246e-13)
(-0 9.328112433e-13 -1.206201009e-12)
(-0 3.705643148e-12 -2.720844005e-12)
(-0 6.058016956e-11 -2.795056517e-11)
(-0 4.528292291e-06 -1.222874136e-06)
(-0 0.0001164630775 -108.4904017)
(-0 4.137767369e-06 -95.05469572)
(-0 6.42293215e-08 -1.789275476e-07)
(-0 3.983553021e-12 -9.677416839e-12)
(-0 2.137896434e-12 -4.492614926e-12)
(-0 1.895718779e-12 -3.461949853e-12)
(-0 1.83350404e-12 -2.938231259e-12)
(-0 5.976258981e-13 -8.494487098e-13)
(-0 2.629057863e-13 -3.348192464e-13)
(-0 4.042314485e-13 -4.65465787e-13)
(-0 1.601119018e-13 -1.680331184e-13)
(-0 7.384524841e-14 -7.112711195e-14)
(-0 6.391281525e-14 -5.684458259e-14)
(-0 8.968141838e-14 -7.404846404e-14)
(-0 4.350025847e-14 -3.350188123e-14)
(-0 1.112855177e-14 -8.027883258e-15)
(-0 1.742307384e-15 -1.181676247e-15)
(-0 1.195735372e-15 -7.650329706e-16)
(-0 2.410596216e-16 -1.459345505e-16)
(-0 5.511289569e-16 -3.165696579e-16)
(-0 2.183405964e-16 -1.192942076e-16)
(-0 1.420617674e-16 -7.399857868e-17)
(-0 1.900277119e-17 -9.456572041e-18)
(-0 2.422695227e-18 -1.154039688e-18)
(-0 3.70153575e-18 -1.690779784e-18)
(-0 1.62000915e-18 -7.107430901e-19)
(-0 1.50767081e-19 -6.361542271e-20)
(-0 6.655166972e-20 -2.7042431e-20)
(-0 4.096080054e-20 -1.60519315e-20)
(-0 1.206412024e-20 -4.567519182e-21)
(-0 1.838326117e-21 -6.416059097e-22)
(-0 4.353709267e-22 -1.420901789e-22)
(-0 1.055953785e-22 -2.399153112e-23)
(-0 3.613427157e-23 -4.720242683e-24)
(-0 1.06299339e-23 1.308299557e-24)
(-0 8.822990331e-26 1.037998862e-25)
(-0 -0 0)
(-0 -0 0)
(-0 -0 0)
(-0 -0 -0)
(-0 0 -0)
(-0 -0 -0)
(-0 0 -0)
(-0 -3.075619489e-14 -6.375238562e-13)
(-0 -7.912197457e-14 -7.09875002e-13)
(-0 2.461154128e-14 -4.050514691e-13)
(-0 9.499089512e-13 -1.819475257e-12)
(-0 2.474399487e-12 -2.17561402e-12)
(-0 9.235657706e-09 -4.713800247e-09)
(-0 9.575595505e-07 -2.821217849e-07)
(-0 0.0001646239723 -186.3675696)
(-0 5.53733766e-06 -169.9290711)
(-0 1.38198421e-07 -4.468342157e-07)
(-0 4.455869238e-12 -1.154968071e-11)
(-0 1.929056535e-12 -4.11902978e-12)
(-0 4.09878769e-12 -7.387898771e-12)
(-0 1.66834355e-12 -2.5923627e-12)
(-0 2.792402175e-13 -3.805618949e-13)
(-0 9.344334197e-13 -1.132747873e-12)
(-0 2.702206025e-14 -2.947394123e-14)
(-0 3.997053867e-13 -3.960347957e-13)
(-0 3.074281868e-14 -2.789208203e-14)
(-0 2.848018903e-13 -2.382154028e-13)
(-0 9.641374222e-14 -7.47799636e-14)
(-0 5.482974188e-14 -3.963483734e-14)
(-0 1.247562774e-14 -8.442304417e-15)
(-0 1.016865564e-14 -6.466940723e-15)
(-0 1.660683068e-16 -9.960268401e-17)
(-0 7.467772241e-16 -4.237201319e-16)
(-0 1.098161314e-15 -5.911243191e-16)
(-0 4.941757842e-16 -2.530024314e-16)
(-0 7.249045469e-17 -3.538025503e-17)
(-0 1.344606281e-17 -6.269479286e-18)
(-0 5.073268075e-18 -2.264245118e-18)
(-0 1.234612132e-18 -5.283793656e-19)
(-0 2.721232763e-18 -1.118584068e-18)
(-0 7.291529842e-19 -2.882923803e-19)
(-0 1.066675064e-19 -4.062055209e-20)
(-0 8.862399716e-20 -3.255998603e-20)
(-0 2.354641661e-20 -8.332602701e-21)
(-0 2.560085794e-21 -8.54091414e-22)
(-0 2.195249524e-22 -6.88171687e-23)
(-0 1.535682247e-22 -3.138514099e-23)
(-0 5.728457773e-23 5.813957143e-24)
(-0 7.843467419e-24 8.28192212e-25)
(-0 0 0)
(-0 -0 0)
(-0 -0 -0)
(-0 -0 0)
(-0 -0 -0)
(-0 0 -0)
(-0 0 -0)
(-0 0 0)
(-0 -6.309105931e-15 -1.197573729e-13)
(-0 -1.361606522e-13 -8.220384466e-13)
(-0 -3.618107764e-14 -2.450535506e-13)
(-0 4.18032877e-13 -1.741974135e-12)
(-0 3.614069336e-12 -4.120335267e-12)
(-0 5.729333771e-12 -3.341762226e-12)
(-0 0.0001705886826 -0.0001138141654)
(-0 0.0002264676117 -321.4594831)
(-0 7.867951638e-06 -300.9426549)
(-0 1.973180463e-07 -6.90425294e-07)
(-0 1.320993401e-12 -3.462007898e-12)
(-0 4.983181683e-12 -1.039602384e-11)
(-0 4.074686376e-12 -7.045806945e-12)
(-0 3.069704145e-12 -4.528665501e-12)
(-0 5.297401531e-13 -6.812066978e-13)
(-0 4.427966806e-13 -5.045197876e-13)
(-0 8.742820033e-13 -8.940838016e-13)
(-0 4.607722262e-13 -4.273385764e-13)
(-0 9.098738575e-13 -7.718464714e-13)
(-0 4.035000707e-13 -3.153242226e-13)
(-0 1.306661723e-13 -9.463993463e-14)
(-0 4.694693325e-14 -3.167981382e-14)
(-0 2.416380508e-14 -1.526081132e-14)
(-0 1.937620319e-14 -1.149877817e-14)
(-0 1.166129005e-14 -6.525849047e-15)
(-0 6.631595055e-15 -3.510652793e-15)
(-0 1.777077091e-15 -8.924595893e-16)
(-0 5.777825132e-16 -2.759773119e-16)
(-0 7.39882129e-17 -3.369072662e-17)
(-0 1.949755597e-17 -8.481845888e-18)
(-0 9.533508888e-18 -3.969824239e-18)
(-0 7.728289428e-18 -3.085973206e-18)
(-0 2.251728178e-18 -8.636238493e-19)
(-0 1.729383597e-18 -6.380311664e-19)
(-0 2.208093479e-19 -7.847959349e-20)
(-0 1.784481983e-19 -6.12696843e-20)
(-0 2.391809672e-20 -7.915975579e-21)
(-0 2.267155615e-21 -7.200214867e-22)
(-0 8.746921439e-22 -2.560971822e-22)
(-0 3.45958986e-22 -7.774572817e-23)
(-0 8.535088749e-23 -2.631965694e-24)
(-0 4.795554745e-24 -1.937597877e-25)
(-0 0 0)
(-0 -0 0)
(-0 -0 -0)
(-0 -0 -0)
(-0 -0 -0)
(-0 0 -0)
(-0 0 0)
(-0 0 -0)
(-0 -5.113979547e-38 -1.007571852e-36)
(-0 -5.497334407e-14 -3.034868769e-13)
(-0 -9.646520381e-14 -3.260311873e-13)
(-0 -2.348882516e-14 -3.758496227e-13)
(-0 1.2535513e-12 -2.200027711e-12)
(-0 4.654563827e-12 -3.285049498e-12)
(-0 0.0002141551112 -0.000202615044)
(-0 0.0001387438952 -554.4867446)
(-0 1.166262385e-05 -525.3904093)
(-0 2.623582066e-07 -9.302726999e-07)
(-0 1.189727692e-12 -3.016417908e-12)
(-0 4.216147291e-12 -8.339330597e-12)
(-0 9.340502759e-12 -1.516626246e-11)
(-0 4.458556508e-12 -6.145721826e-12)
(-0 2.058621438e-12 -2.466644922e-12)
(-0 9.042711387e-13 -9.585254658e-13)
(-0 1.993270471e-12 -1.894614259e-12)
(-0 1.927834145e-12 -1.660893013e-12)
(-0 1.171430236e-12 -9.228002805e-13)
(-0 1.031304919e-12 -7.482693366e-13)
(-0 3.16215581e-13 -2.126207031e-13)
(-0 2.253433642e-14 -1.411594044e-14)
(-0 6.421657533e-14 -3.764816586e-14)
(-0 5.59595867e-14 -3.082812194e-14)
(-0 3.601454577e-14 -1.870982572e-14)
(-0 8.370843358e-15 -4.113924951e-15)
(-0 2.968516021e-15 -1.384067209e-15)
(-0 7.476657495e-16 -3.315670165e-16)
(-0 1.330919854e-16 -5.62696661e-17)
(-0 9.67974366e-17 -3.909920129e-17)
(-0 3.621808211e-17 -1.400415781e-17)
(-0 1.144794374e-17 -4.244880956e-18)
(-0 2.991978624e-18 -1.06564533e-18)
(-0 2.727180696e-18 -9.344322562e-19)
(-0 7.04962807e-19 -2.327402974e-19)
(-0 2.439351095e-19 -7.776055336e-20)
(-0 2.297687868e-20 -7.068581674e-21)
(-0 3.969347922e-21 -1.179811341e-21)
(-0 1.866886822e-21 -5.091840862e-22)
(-0 4.640191534e-22 -1.118472028e-22)
(-0 4.798942675e-23 -1.064988631e-23)
(-0 0 -0)
(-0 0 0)
(-0 -0 0)
(-0 -0 -0)
(-0 -0 -0)
(-0 -0 -0)
(-0 0 -0)
(-0 0 -0)
(-0 0 -0)
(-0 -7.261849411e-52 -1.429502345e-50)
(-0 -3.464843791e-14 -1.802501404e-13)
(-0 -1.170874998e-13 -3.132066027e-13)
(-0 -1.889433822e-13 -5.411814384e-13)
(-0 1.170615972e-12 -5.664523857e-12)
(-0 1.021982874e-11 -9.640109887e-12)
(-0 2.469712298e-06 -1.065142656e-06)
(-0 7.612782028e-05 -949.0496874)
(-0 1.806589802e-05 -899.946793)
(-0 1.828880885e-07 -6.190690633e-07)
(-0 1.344426574e-11 -3.182668753e-11)
(-0 2.215494275e-11 -4.058440426e-11)
(-0 4.60275381e-12 -6.900277055e-12)
(-0 4.341005707e-12 -5.518393672e-12)
(-0 4.769205751e-12 -5.268236612e-12)
(-0 9.378435191e-12 -9.164608014e-12)
(-0 3.304681274e-12 -2.896086612e-12)
(-0 1.196425073e-12 -9.505079202e-13)
(-0 2.300772893e-12 -1.671627254e-12)
(-0 1.207138038e-12 -8.079350217e-13)
(-0 7.166671025e-13 -4.44588068e-13)
(-0 3.050603113e-13 -1.763325376e-13)
(-0 1.314441391e-13 -7.111766171e-14)
(-0 1.13870109e-13 -5.789942332e-14)
(-0 3.399835788e-14 -1.630380627e-14)
(-0 9.098124203e-15 -4.127822777e-15)
(-0 8.673487606e-15 -3.733638238e-15)
(-0 1.607148925e-15 -6.580753257e-16)
(-0 5.236564268e-16 -2.044353992e-16)
(-0 1.941024054e-16 -7.240204518e-17)
(-0 5.081545841e-17 -1.814553403e-17)
(-0 1.232331825e-17 -4.220161796e-18)
(-0 4.967746881e-18 -1.634182143e-18)
(-0 1.274925934e-18 -4.034897506e-19)
(-0 9.439472302e-19 -2.878373109e-19)
(-0 8.830831191e-20 -2.597894124e-20)
(-0 5.909327476e-21 -1.678610489e-21)
(-0 2.492096562e-21 -6.818170781e-22)
(-0 4.102592214e-22 -1.067128073e-22)
(-0 9.272294621e-23 -2.189436452e-23)
(-0 3.255683432e-23 -7.587771685e-24)
(-0 0 -0)
(-0 0 0)
(-0 -0 0)
(-0 -0 -0)
(-0 -0 -0)
(-0 -0 0)
(-0 0 0)
(-0 0 -0)
(-0 0 0)
(-0 -1.553174255e-27 -2.962954521e-26)
(-0 -3.389875644e-17 -1.741394036e-16)
(-0 -8.664204996e-14 -2.07418391e-13)
(-0 -2.7121445e-13 -4.579561766e-13)
(-0 -1.293287653e-12 -6.137631408e-12)
(-0 6.489864377e-12 -1.001938447e-11)
(-0 2.084937486e-06 -1.134824529e-06)
(-0 0.0002626774149 -1595.71023)
(-0 2.773350682e-05 -1504.889953)
(-0 1.075205332e-10 -3.309499745e-10)
(-0 4.122021124e-11 -8.855991419e-11)
(-0 2.558992054e-11 -4.259654475e-11)
(-0 2.252433374e-11 -3.073776235e-11)
(-0 4.788042651e-12 -5.549267129e-12)
(-0 1.830998839e-11 -1.846395805e-11)
(-0 9.545457303e-12 -8.524048411e-12)
(-0 6.819612161e-12 -5.465898029e-12)
(-0 3.693979421e-12 -2.685746577e-12)
(-0 3.100396306e-12 -2.062560585e-12)
(-0 3.34880311e-12 -2.053112102e-12)
(-0 1.656193583e-12 -9.414582208e-13)
(-0 9.07926561e-13 -4.810243955e-13)
(-0 1.11411097e-13 -5.526294143e-14)
(-0 9.600935327e-14 -4.476421634e-14)
(-0 4.319076386e-14 -1.899528225e-14)
(-0 2.600478906e-14 -1.082198399e-14)
(-0 6.737814888e-15 -2.660688913e-15)
(-0 9.061339796e-16 -3.404032811e-16)
(-0 1.355159381e-16 -4.854241771e-17)
(-0 1.966874337e-17 -6.732138427e-18)
(-0 4.958233251e-18 -1.624755252e-18)
(-0 8.010096439e-18 -2.517413488e-18)
(-0 4.97024248e-18 -1.500592899e-18)
(-0 1.976419232e-18 -5.741044089e-19)
(-0 1.455958257e-18 -4.074766599e-19)
(-0 1.846648673e-19 -4.984916096e-20)
(-0 5.563452901e-20 -1.450738284e-20)
(-0 1.239200113e-20 -3.121476892e-21)
(-0 3.089124302e-21 -7.53726863e-22)
(-0 4.490852478e-22 -1.071866494e-22)
(-0 1.088874453e-22 -2.657931884e-23)
(-0 0 -0)
(-0 0 -0)
(-0 -0 -0)
(-0 -0 0)
(-0 -0 0)
(-0 -0 0)
(-0 0 0)
(-0 0 -0)
(-0 0 -0)
(-0 -5.130457951e-26 -9.237863915e-25)
(-0 -8.127387738e-23 -3.949176831e-22)
(-0 -1.962097362e-14 -4.400195509e-14)
(-0 -1.172399548e-13 -1.579497763e-13)
(-0 -3.267082791e-13 -4.857186183e-13)
(-0 1.771742309e-12 -1.062303706e-11)
(-0 1.890380836e-06 -1.397664797e-06)
(-0 0.0002792447182 -2605.620805)
(-0 4.441180186e-05 -2442.776861)
(-0 4.959903415e-08 -1.335347789e-07)
(-0 5.957404489e-11 -1.135212677e-10)
(-0 4.17007903e-11 -6.206162334e-11)
(-0 2.726288304e-11 -3.343405625e-11)
(-0 1.546445736e-11 -1.616265378e-11)
(-0 1.054659366e-11 -9.613995834e-12)
(-0 2.337319158e-11 -1.890089585e-11)
(-0 8.114240482e-12 -5.896918168e-12)
(-0 7.515634979e-12 -4.959435685e-12)
(-0 6.008023227e-12 -3.630265752e-12)
(-0 4.701134861e-12 -2.61934288e-12)
(-0 1.220884708e-12 -6.309972698e-13)
(-0 9.204688194e-13 -4.435524979e-13)
(-0 3.529720663e-13 -1.592913452e-13)
(-0 3.410804096e-14 -1.447185691e-14)
(-0 4.128567057e-14 -1.652685233e-14)
(-0 1.788236361e-14 -6.774640792e-15)
(-0 1.786183228e-14 -6.421988586e-15)
(-0 3.569646295e-15 -1.221087379e-15)
(-0 1.241842298e-15 -4.050999351e-16)
(-0 5.324297308e-16 -1.659746929e-16)
(-0 1.702615602e-16 -5.081756463e-17)
(-0 5.916825578e-17 -1.693835655e-17)
(-0 1.314361187e-17 -3.614867177e-18)
(-0 1.020959519e-17 -2.701684719e-18)
(-0 2.731739168e-18 -6.965008472e-19)
(-0 1.137190261e-18 -2.796862666e-19)
(-0 1.046501939e-19 -2.486889882e-20)
(-0 1.847809585e-20 -4.248645701e-21)
(-0 6.785133208e-21 -1.515722901e-21)
(-0 1.540696568e-21 -3.41874554e-22)
(-0 2.534600746e-22 -6.227659786e-23)
(-0 3.235788454e-23 -6.636272727e-24)
(-0 0 -0)
(-0 -0 -0)
(-0 -0 0)
(-0 -0 0)
(-0 -0 0)
(-0 0 -0)
(-0 0 -0)
(-0 0 -0)
(-0 -2.51899945e-23 -4.19808235e-22)
(-0 -1.029187427e-22 -4.582925072e-22)
(-0 -4.758318415e-15 -9.928762807e-15)
(-0 -1.328409624e-13 -1.594443391e-13)
(-0 -2.198414707e-13 -2.023626088e-13)
(-0 -1.430374387e-13 -3.439533234e-13)
(-0 5.701915359e-07 -6.691769691e-07)
(-0 0.0002709138096 -4082.494379)
(-0 7.703275103e-05 -3824.058139)
(-0 1.020223106e-06 -2.334028527e-06)
(-0 7.217765017e-11 -1.196836778e-10)
(-0 3.944054428e-11 -5.17150445e-11)
(-0 5.697154836e-12 -6.20099393e-12)
(-0 6.670558763e-12 -6.216873277e-12)
(-0 2.454031422e-11 -2.001167936e-11)
(-0 1.953223537e-11 -1.416097085e-11)
(-0 1.688085417e-11 -1.101646722e-11)
(-0 7.091551732e-12 -4.207162023e-12)
(-0 9.626613221e-12 -5.234135888e-12)
(-0 4.578565395e-12 -2.297081873e-12)
(-0 7.215578144e-13 -3.359762537e-13)
(-0 1.169622703e-12 -5.079784813e-13)
(-0 3.439594919e-13 -1.399476475e-13)
(-0 4.924917567e-14 -1.88446662e-14)
(-0 6.492571194e-14 -2.344358678e-14)
(-0 4.639869538e-14 -1.585849082e-14)
(-0 2.212459113e-14 -7.177593564e-15)
(-0 9.717704663e-15 -2.999856395e-15)
(-0 6.248029308e-16 -1.839504718e-16)
(-0 2.891234055e-16 -8.135140693e-17)
(-0 1.178801583e-16 -3.17595911e-17)
(-0 5.668662429e-17 -1.464974441e-17)
(-0 2.072499556e-17 -5.145921945e-18)
(-0 2.05278285e-17 -4.904419021e-18)
(-0 2.872311805e-18 -6.612355429e-19)
(-0 1.578599306e-18 -3.506053376e-19)
(-0 4.177289274e-19 -8.959496422e-20)
(-0 3.7656501e-20 -7.810842131e-21)
(-0 6.384022877e-21 -1.283948648e-21)
(-0 2.625267248e-21 -5.214755727e-22)
(-0 6.606815214e-22 -1.370517338e-22)
(-0 5.848239981e-23 -1.003041159e-23)
(-0 0 -0)
(-0 0 -0)
(-0 -0 0)
(-0 -0 0)
(-0 -0 0)
(-0 0 -0)
(-0 0 0)
(-0 0 -0)
(-0 -3.708028785e-24 -5.474396886e-23)
(-0 -3.084705751e-22 -1.215832775e-21)
(-0 -2.181642657e-21 -4.061320584e-21)
(-0 -6.030270007e-14 -6.679120456e-14)
(-0 -2.751704556e-13 -2.102352949e-13)
(-0 -3.285080818e-13 -2.982726034e-13)
(-0 1.781575168e-07 -6.459059067e-07)
(-0 0.0002156941697 -6069.348181)
(-0 0.0001055457475 -5730.908878)
(-0 3.15635699e-06 -6.007700092e-06)
(-0 8.91790256e-11 -1.26554279e-10)
(-0 1.48633475e-11 -1.692734105e-11)
(-0 6.754504353e-11 -6.440854725e-11)
(-0 7.392026565e-11 -6.068571797e-11)
(-0 3.631830444e-11 -2.618274324e-11)
(-0 6.780806092e-11 -4.357066127e-11)
(-0 7.404839989e-12 -4.290489185e-12)
(-0 3.191954641e-11 -1.68348589e-11)
(-0 4.886780498e-12 -2.364375677e-12)
(-0 7.627513331e-12 -3.407753057e-12)
(-0 1.098584436e-12 -4.557766445e-13)
(-0 9.835157845e-13 -3.807605462e-13)
(-0 4.139574804e-13 -1.501881136e-13)
(-0 2.928586629e-13 -9.995161546e-14)
(-0 2.375239209e-13 -7.65164863e-14)
(-0 1.154401478e-13 -3.520739086e-14)
(-0 3.344932456e-14 -9.684533518e-15)
(-0 1.007910723e-14 -2.77717097e-15)
(-0 4.469477641e-15 -1.174642741e-15)
(-0 7.049378186e-16 -1.770778418e-16)
(-0 1.145033286e-16 -2.754347467e-17)
(-0 2.297998135e-17 -5.30267959e-18)
(-0 6.999179899e-17 -1.551805794e-17)
(-0 2.078132912e-17 -4.433652889e-18)
(-0 2.460170634e-18 -5.057723176e-19)
(-0 1.276664589e-18 -2.532343445e-19)
(-0 5.397950306e-19 -1.033985178e-19)
(-0 9.991393583e-20 -1.851916685e-20)
(-0 1.629597139e-20 -2.923474274e-21)
(-0 3.496273357e-21 -6.089111596e-22)
(-0 1.103957252e-21 -1.707801694e-22)
(-0 1.277989126e-22 -1.603147239e-23)
(-0 9.852339203e-24 -1.146988743e-24)
(-0 0 -0)
(-0 -0 0)
(-0 -0 0)
(-0 -0 0)
(-0 -0 -0)
(-0 0 -0)
(-0 0 -0)
(-0 -1.587422467e-24 -1.982865124e-23)
(-0 -1.283286251e-21 -4.324189694e-21)
(-0 -2.594171341e-21 -4.157952834e-21)
(-0 -2.918152169e-17 -2.873533526e-17)
(-0 -1.378123801e-13 -9.554181007e-14)
(-0 -1.501501268e-16 -9.038729535e-17)
(-0 -1.900600638e-07 -4.323745162e-07)
(-0 7.831524443e-05 -8484.390952)
(-0 -5.589275951e-05 -8154.165545)
(-0 2.736972672e-05 -4.336369618e-05)
(-0 1.770771166e-10 -2.116760518e-10)
(-0 1.962057195e-10 -1.911806256e-10)
(-0 1.457822743e-10 -1.20029976e-10)
(-0 6.621676279e-11 -4.720963686e-11)
(-0 1.055523527e-10 -6.633670859e-11)
(-0 2.085323386e-11 -1.171167154e-11)
(-0 3.006350309e-11 -1.525335844e-11)
(-0 1.297659956e-11 -6.001067425e-12)
(-0 1.801611192e-11 -7.650642458e-12)
(-0 1.103251503e-11 -4.329373778e-12)
(-0 4.547316922e-12 -1.658004713e-12)
(-0 1.346890912e-12 -4.584652533e-13)
(-0 4.856948018e-13 -1.549878137e-13)
(-0 3.81168371e-13 -1.14451981e-13)
(-0 2.198812523e-13 -6.233154933e-14)
(-0 6.190586862e-14 -1.661729816e-14)
(-0 3.741937934e-14 -9.536857428e-15)
(-0 1.592710742e-14 -3.863577803e-15)
(-0 4.286089783e-15 -9.918104216e-16)
(-0 2.930841714e-15 -6.48281148e-16)