/*--------------------------------*- C++ -*----------------------------------*\
  =========                 |
  \\      /  F ield         | OpenFOAM: The Open Source CFD Toolbox
   \\    /   O peration     | Website:  https://openfoam.org
    \\  /    A nd           | Version:  6
     \\/     M anipulation  |
\*---------------------------------------------------------------------------*/
FoamFile
{
    version     2.0;
    format      ascii;
    class       volScalarField;
    location    "0.13";
    object      Num_divU;
}
// * * * * * * * * * * * * * * * * * * * * * * * * * * * * * * * * * * * * * //

dimensions      [0 0 -1 0 0 0 0];

internalField   nonuniform List<scalar> 
2500
(
5.345564638e-07
-1.701739373e-07
-5.511740857e-07
-2.857972146e-07
1.655877148e-07
2.440805605e-07
1.36980535e-07
4.227168355e-07
6.423476126e-07
-3.706839804e-22
-1.539001501e-17
-3.461666038e-17
-5.267685598e-17
-7.024854785e-17
-8.75987854e-17
-1.047665228e-16
-1.217317998e-16
-1.384665243e-16
-1.549433046e-16
-1.711353994e-16
-1.870129962e-16
-2.025478145e-16
-2.177158e-16
-2.324953431e-16
-2.468646937e-16
-2.608021967e-16
-2.74287744e-16
-2.873037792e-16
-2.998351631e-16
-3.118686311e-16
-3.233920525e-16
-3.343943795e-16
-3.448656326e-16
-3.54797008e-16
-3.641811203e-16
-3.730117752e-16
-3.812840612e-16
-3.889941362e-16
-3.961390062e-16
-4.027165219e-16
-4.087252037e-16
-4.141641544e-16
-4.190329195e-16
-4.233315448e-16
-4.270604308e-16
-4.302202644e-16
-4.328121299e-16
-4.348372656e-16
-4.362968273e-16
-4.371889586e-16
-4.745752079e-07
-5.725840704e-07
-2.516948844e-07
1.137367368e-07
3.408986678e-07
1.473963243e-07
-6.549607359e-07
-2.084508533e-06
-1.111830636e-07
-3.075190939e-17
-6.441343591e-17
-9.757701913e-17
-1.29155705e-16
-1.601699853e-16
-1.90820067e-16
-2.210994615e-16
-2.509635262e-16
-2.803615598e-16
-3.092409373e-16
-3.375529967e-16
-3.652513579e-16
-3.922914928e-16
-4.186314859e-16
-4.442323908e-16
-4.690575339e-16
-4.930728977e-16
-5.162476975e-16
-5.385545869e-16
-5.599692058e-16
-5.804697686e-16
-6.000366803e-16
-6.186524371e-16
-6.363017991e-16
-6.529717201e-16
-6.686514556e-16
-6.833322115e-16
-6.970071665e-16
-7.096709952e-16
-7.213199185e-16
-7.319513077e-16
-7.415635246e-16
-7.501559106e-16
-7.577286013e-16
-7.64282466e-16
-7.698193309e-16
-7.743422212e-16
-7.778569183e-16
-7.803756982e-16
-7.819307853e-16
-3.451679279e-16
-1.784480412e-07
-7.137870178e-08
-3.386973736e-08
1.611950756e-07
5.899721077e-07
8.844028994e-07
1.109579568e-06
5.06085987e-07
-5.739789344e-08
-2.51753326e-17
-5.366085144e-17
-8.232685354e-17
-1.09768262e-16
-1.36788727e-16
-1.635171224e-16
-1.89934028e-16
-2.159950556e-16
-2.416533077e-16
-2.668637768e-16
-2.915847461e-16
-3.157750384e-16
-3.393941746e-16
-3.624052074e-16
-3.84774823e-16
-4.064720667e-16
-4.274675977e-16
-4.477340041e-16
-4.672465392e-16
-4.8598323e-16
-5.039247335e-16
-5.210538865e-16
-5.373554623e-16
-5.528162573e-16
-5.674248329e-16
-5.81171643e-16
-5.940489128e-16
-6.06050541e-16
-6.1717177e-16
-6.274091408e-16
-6.367602116e-16
-6.452235467e-16
-6.527983704e-16
-6.594846645e-16
-6.652828279e-16
-6.701937413e-16
-6.742186588e-16
-6.77358504e-16
-6.79611738e-16
-6.809641628e-16
-3.362760159e-16
-2.183611601e-07
-7.902479173e-08
-1.03340593e-08
-3.400704934e-08
-3.678656002e-08
-1.40884816e-07
9.694459126e-08
3.688481572e-08
1.088536893e-07
-2.478254222e-17
-5.269433503e-17
-8.089593667e-17
-1.079339045e-16
-1.345737314e-16
-1.609289844e-16
-1.869768207e-16
-2.126764076e-16
-2.379800339e-16
-2.628416645e-16
-2.872196227e-16
-3.110741978e-16
-3.343661518e-16
-3.570589677e-16
-3.791196302e-16
-4.005176911e-16
-4.212243809e-16
-4.412125181e-16
-4.604575208e-16
-4.789374998e-16
-4.966332745e-16
-5.135279904e-16
-5.29606793e-16
-5.448566958e-16
-5.592665106e-16
-5.728268896e-16
-5.855301622e-16
-5.973701536e-16
-6.083422068e-16
-6.184428751e-16
-6.27669693e-16
-6.360211927e-16
-6.434965021e-16
-6.500954709e-16
-6.558181605e-16
-6.606649545e-16
-6.646362291e-16
-6.677314267e-16
-6.699480342e-16
-6.712796666e-16
-3.354953918e-16
-1.133809113e-07
-6.823137146e-09
-6.484029859e-08
6.714850013e-08
1.175068882e-07
-1.048445424e-07
-1.353914177e-07
-1.653256566e-07
2.004713806e-07
-2.476996923e-17
-5.262923751e-17
-8.079509466e-17
-1.078025847e-16
-1.34414104e-16
-1.607435553e-16
-1.867636479e-16
-2.124367067e-16
-2.377144332e-16
-2.625502608e-16
-2.869017884e-16
-3.10729725e-16
-3.339957687e-16
-3.566636027e-16
-3.786999061e-16
-4.000741035e-16
-4.207573572e-16
-4.407228051e-16
-4.599457907e-16
-4.784044097e-16
-4.96079457e-16
-5.12954069e-16
-5.290135332e-16
-5.442449645e-16
-5.586372964e-16
-5.721811008e-16
-5.848687615e-16
-5.966941205e-16
-6.076524381e-16
-6.177402425e-16
-6.26955092e-16
-6.352954411e-16
-6.427603303e-16
-6.493493675e-16
-6.550626182e-16
-6.599000731e-16
-6.638616523e-16
-6.669467486e-16
-6.691536533e-16
-6.704797349e-16
-3.354831729e-16
-4.307083495e-08
7.581551477e-08
-1.507165354e-07
-8.040471281e-08
1.090950128e-08
-1.101120773e-07
-2.074304968e-07
-2.270852502e-07
1.616450002e-07
-2.477944579e-17
-5.264238238e-17
-8.081547328e-17
-1.07829646e-16
-1.344460891e-16
-1.607825791e-16
-1.868079412e-16
-2.124859936e-16
-2.377683947e-16
-2.626087839e-16
-2.869642468e-16
-3.107953306e-16
-3.340642298e-16
-3.567348766e-16
-3.78773762e-16
-4.001500871e-16
-4.20835032e-16
-4.40801799e-16
-4.600258802e-16
-4.784853531e-16
-4.961609436e-16
-5.13035883e-16
-5.290953981e-16
-5.443267005e-16
-5.587187292e-16
-5.722621152e-16
-5.849492e-16
-5.96773831e-16
-6.077312442e-16
-6.178179472e-16
-6.270314393e-16
-6.353700802e-16
-6.42832948e-16
-6.494195589e-16
-6.551297373e-16
-6.599634888e-16
-6.639205763e-16
-6.670006214e-16
-6.692026177e-16
-6.705254576e-16
-3.355463405e-16
-1.201803819e-07
5.652842015e-08
-6.11966599e-08
-1.318062675e-07
-8.929065458e-08
-1.194492002e-07
-2.313499924e-07
-1.001738239e-07
3.693771045e-08
-2.478657773e-17
-5.266268457e-17
-8.084799202e-17
-1.078726949e-16
-1.344971501e-16
-1.608421352e-16
-1.868758152e-16
-2.125616573e-16
-2.378512916e-16
-2.626988439e-16
-2.870612656e-16
-3.108987108e-16
-3.341735344e-16
-3.568497473e-16
-3.78893826e-16
-4.002747558e-16
-4.209637706e-16
-4.409341911e-16
-4.601615497e-16
-4.786239898e-16
-4.963022975e-16
-5.13179588e-16
-5.292411778e-16
-5.444742479e-16
-5.588677481e-16
-5.724123909e-16
-5.851004481e-16
-5.969257541e-16
-6.078835467e-16
-6.179703164e-16
-6.271835024e-16
-6.355214788e-16
-6.429832514e-16
-6.495682506e-16
-6.552763284e-16
-6.601073653e-16
-6.640613328e-16
-6.671379388e-16
-6.693367685e-16
-6.706572669e-16
-3.356188102e-16
-3.073681176e-07
-1.953910898e-08
4.096106484e-08
-2.622640468e-08
-1.545647634e-07
-5.475053329e-08
-2.501833153e-07
1.237863953e-07
-6.824216217e-08
-2.479368521e-17
-5.268366016e-17
-8.088170919e-17
-1.07918235e-16
-1.345524216e-16
-1.609039016e-16
-1.869458749e-16
-2.126389817e-16
-2.379356594e-16
-2.627904132e-16
-2.871598784e-16
-3.110041725e-16
-3.342853935e-16
-3.569676298e-16
-3.79017246e-16
-4.004031311e-16
-4.21096537e-16
-4.410708484e-16
-4.603018195e-16
-4.787675448e-16
-4.964488203e-16
-5.133287974e-16
-5.293927699e-16
-5.446279251e-16
-5.590232195e-16
-5.725693392e-16
-5.852586045e-16
-5.970848386e-16
-6.080432507e-16
-6.181302833e-16
-6.273433831e-16
-6.356808848e-16
-6.431417782e-16
-6.497255172e-16
-6.554318806e-16
-6.602608323e-16
-6.642124115e-16
-6.672865247e-16
-6.694830561e-16
-6.708017521e-16
-3.356934949e-16
-3.197881971e-07
-2.721603438e-08
1.064419689e-07
6.265801231e-08
-1.543769015e-07
-1.241322373e-09
-1.737795717e-07
2.413857009e-07
-5.319215743e-08
-2.4803302e-17
-5.2703929e-17
-8.091098035e-17
-1.079618721e-16
-1.346088131e-16
-1.609660754e-16
-1.870162278e-16
-2.127155784e-16
-2.380187444e-16
-2.628803056e-16
-2.872566467e-16
-3.111076392e-16
-3.343953897e-16
-3.57083798e-16
-3.791391252e-16
-4.005301258e-16
-4.212281005e-16
-4.412065219e-16
-4.604411164e-16
-4.789102296e-16
-4.965946055e-16
-5.134773768e-16
-5.29543826e-16
-5.44781145e-16
-5.591783897e-16
-5.727261609e-16
-5.854167641e-16
-5.972440154e-16
-6.082031816e-16
-6.182905827e-16
-6.275037321e-16
-6.358409487e-16
-6.433011925e-16
-6.498838972e-16
-6.555888944e-16
-6.604162131e-16
-6.643659413e-16
-6.674381617e-16
-6.696329043e-16
-6.709501644e-16
-3.357688479e-16
-3.273530511e-08
1.246943524e-07
1.944727355e-07
-5.110193152e-08
2.790355933e-10
-8.571741816e-08
6.649815235e-08
2.568077682e-07
1.138031557e-07
-2.481350409e-17
-5.272278999e-17
-8.092996643e-17
-1.079984078e-16
-1.346617378e-16
-1.610268403e-16
-1.870858014e-16
-2.127909144e-16
-2.380998193e-16
-2.629678256e-16
-2.873507312e-16
-3.112081853e-16
-3.345023603e-16
-3.571969611e-16
-3.792580396e-16
-4.006543089e-16
-4.213570152e-16
-4.413396546e-16
-4.605781085e-16
-4.790506996e-16
-4.96738202e-16
-5.136237935e-16
-5.29692804e-16
-5.449323884e-16
-5.593316139e-16
-5.728811028e-16
-5.855731438e-16
-5.974015705e-16
-6.083615112e-16
-6.184494361e-16
-6.276627792e-16
-6.359998362e-16
-6.434595954e-16
-6.500415212e-16
-6.557454769e-16
-6.605715003e-16
-6.645197747e-16
-6.675904855e-16
-6.697838348e-16
-6.710998887e-16
-3.358438505e-16
2.496931073e-07
3.574111574e-07
2.076438634e-07
-1.761883676e-07
1.313763174e-07
-1.688657971e-07
3.801266227e-07
4.426648087e-07
3.117140372e-07
-2.481907566e-17
-5.274240851e-17
-8.093839887e-17
-1.080246556e-16
-1.347060417e-16
-1.610832833e-16
-1.871522489e-16
-2.128637118e-16
-2.381783452e-16
-2.630525205e-16
-2.874416494e-16
-3.113053429e-16
-3.346057242e-16
-3.573063434e-16
-3.793730538e-16
-4.00774561e-16
-4.214820625e-16
-4.414691316e-16
-4.607115554e-16
-4.791877055e-16
-4.96878422e-16
-5.137669308e-16
-5.298384859e-16
-5.450804118e-16
-5.594816409e-16
-5.730328721e-16
-5.857264335e-16
-5.975560326e-16
-6.085169086e-16
-6.186054456e-16
-6.278190982e-16
-6.361561593e-16
-6.436156226e-16
-6.501969821e-16
-6.559001096e-16
-6.607251311e-16
-6.646722599e-16
-6.677417683e-16
-6.699339335e-16
-6.712489314e-16
-3.359175353e-16
2.428768174e-07
4.643646628e-07
1.729447052e-07
-1.384056064e-07
-2.124585831e-08
6.481346117e-08
6.819060065e-07
9.457300011e-07
2.914150794e-07
-2.481509681e-17
-5.276616077e-17
-8.094609133e-17
-1.080430359e-16
-1.347397854e-16
-1.611331403e-16
-1.872132814e-16
-2.12932453e-16
-2.382535441e-16
-2.631337712e-16
-2.875288734e-16
-3.113986094e-16
-3.347049909e-16
-3.574113302e-16
-3.794834486e-16
-4.008899654e-16
-4.216022076e-16
-4.415936689e-16
-4.608401812e-16
-4.793200387e-16
-4.970140605e-16
-5.139054622e-16
-5.299796404e-16
-5.452238409e-16
-5.596271329e-16
-5.731801502e-16
-5.858752042e-16
-5.977061041e-16
-6.086679227e-16
-6.187571726e-16
-6.279712118e-16
-6.363084206e-16
-6.437677405e-16
-6.503487021e-16
-6.560512141e-16
-6.608754445e-16
-6.64821658e-16
-6.678901516e-16
-6.700813245e-16
-6.713953311e-16
-3.359889847e-16
1.557351321e-08
3.637870368e-07
1.137166547e-07
-6.43396705e-08
-1.716789465e-07
6.698982851e-07
8.105961927e-07
1.304618601e-06
-3.881347786e-08
-2.480382199e-17
-5.279126604e-17
-8.096900618e-17
-1.080630535e-16
-1.347676186e-16
-1.61176664e-16
-1.872677106e-16
-2.129958462e-16
-2.383244363e-16
-2.632109265e-16
-2.876117019e-16
-3.114872472e-16
-3.347994946e-16
-3.57511406e-16
-3.795885576e-16
-4.009997181e-16
-4.217163849e-16
-4.417121748e-16
-4.609627724e-16
-4.794463488e-16
-4.971437335e-16
-5.140381161e-16
-5.301148985e-16
-5.453613774e-16
-5.59766681e-16
-5.733214673e-16
-5.860180444e-16
-5.978502002e-16
-6.088130793e-16
-6.189030747e-16
-6.281176076e-16
-6.364550361e-16
-6.439143603e-16
-6.504950734e-16
-6.561971637e-16
-6.610207552e-16
-6.649661735e-16
-6.680338551e-16
-6.702241094e-16
-6.715372439e-16
-3.360572222e-16
-2.26197134e-07
1.615960744e-07
8.329483591e-08
-4.560959011e-09
8.546255462e-08
1.062539599e-06
5.266721458e-07
7.843609648e-07
-2.806738219e-07
-2.479843219e-17
-5.280017521e-17
-8.100777833e-17
-1.080897792e-16
-1.347940749e-16
-1.612151779e-16
-1.873155706e-16
-2.130530977e-16
-2.383901317e-16
-2.632832101e-16
-2.876895331e-16
-3.115705625e-16
-3.348884088e-16
-3.576056563e-16
-3.796875753e-16
-4.011030474e-16
-4.218237843e-16
-4.418235412e-16
-4.610780445e-16
-4.795653664e-16
-4.972661163e-16
-5.141634415e-16
-5.302427993e-16
-5.454915722e-16
-5.598988154e-16
-5.734553677e-16
-5.861534367e-16
-5.979868647e-16
-6.089507692e-16
-6.190415506e-16
-6.282566542e-16
-6.365944214e-16
-6.440538083e-16
-6.506344104e-16
-6.563361374e-16
-6.611592581e-16
-6.651040839e-16
-6.68171007e-16
-6.703604535e-16
-6.716727306e-16
-3.361213304e-16
-3.164166205e-07
-7.977720441e-09
8.510755627e-08
9.254958536e-08
5.253382482e-07
9.000873927e-07
2.646161809e-07
-6.012735433e-07
-2.256183824e-07
-2.481508084e-17
-5.280114596e-17
-8.105925144e-17
-1.08128032e-16
-1.34824533e-16
-1.612512592e-16
-1.873586978e-16
-2.13104758e-16
-2.38450004e-16
-2.633497309e-16
-2.877615533e-16
-3.116477223e-16
-3.349708174e-16
-3.576931038e-16
-3.797795574e-16
-4.011989958e-16
-4.219234217e-16
-4.419268434e-16
-4.611849423e-16
-4.796757838e-16
-4.973797818e-16
-5.142800371e-16
-5.30361963e-16
-5.456129077e-16
-5.600221316e-16
-5.735802987e-16
-5.862798494e-16
-5.981145025e-16
-6.090794379e-16
-6.191710536e-16
-6.283867547e-16
-6.367248567e-16
-6.441844334e-16
-6.507649609e-16
-6.564664892e-16
-6.612891983e-16
-6.652334847e-16
-6.682997702e-16
-6.704884839e-16
-6.717999447e-16
-3.36180363e-16
-2.58231909e-07
-5.980866232e-08
1.063025774e-07
2.252115483e-07
6.996797742e-07
5.695349908e-07
5.094454662e-07
-1.811763402e-06
1.30762442e-07
-2.484899298e-17
-5.279196538e-17
-8.110151386e-17
-1.081679734e-16
-1.348575172e-16
-1.612852667e-16
-1.87398037e-16
-2.131514306e-16
-2.385037347e-16
-2.634096943e-16
-2.878268863e-16
-3.117179838e-16
-3.350457989e-16
-3.577727067e-16
-3.798633533e-16
-4.01286494e-16
-4.220143106e-16
-4.42020928e-16
-4.612823452e-16
-4.797763951e-16
-4.974834455e-16
-5.143865119e-16
-5.304708493e-16
-5.457239464e-16
-5.601349641e-16
-5.736947819e-16
-5.86395677e-16
-5.98231552e-16
-6.091974916e-16
-6.192898952e-16
-6.285061964e-16
-6.368447318e-16
-6.443044771e-16
-6.508850348e-16
-6.565864073e-16
-6.614088019e-16
-6.653526174e-16
-6.684183571e-16
-6.706063822e-16
-6.719170962e-16
-3.362334702e-16
-1.708752486e-07
-1.639655792e-10
1.163399431e-07
2.828884857e-07
4.483907597e-07
8.65524455e-09
5.700873636e-07
-1.873417401e-06
3.486841295e-07
-2.488764459e-17
-5.279192036e-17
-8.112523862e-17
-1.081975255e-16
-1.348871773e-16
-1.613156244e-16
-1.874334815e-16
-2.131931596e-16
-2.385511123e-16
-2.634624275e-16
-2.878847769e-16
-3.117805205e-16
-3.351125487e-16
-3.57843437e-16
-3.799378459e-16
-4.013644096e-16
-4.220952667e-16
-4.421048614e-16
-4.613691317e-16
-4.798660544e-16
-4.975758654e-16
-5.144814837e-16
-5.305681176e-16
-5.458232123e-16
-5.602359566e-16
-5.737972567e-16
-5.864994766e-16
-5.983364513e-16
-6.09303339e-16
-6.193965316e-16
-6.28613428e-16
-6.369523476e-16
-6.444123226e-16
-6.509929517e-16
-6.566941806e-16
-6.61516327e-16
-6.654597672e-16
-6.685249491e-16
-6.707123759e-16
-6.720223523e-16
-3.362797592e-16
-1.496342615e-07
7.277949768e-08
1.003229347e-07
2.937059402e-07
1.901610106e-07
-2.744262212e-07
9.593267594e-07
-4.488557731e-07
2.596342617e-07
-2.491678177e-17
-5.282639564e-17
-8.11407029e-17
-1.08216707e-16
-1.34911487e-16
-1.613419977e-16
-1.874649069e-16
-2.132296136e-16
-2.385918077e-16
-2.63507442e-16
-2.879344458e-16
-3.118345292e-16
-3.351702477e-16
-3.579044536e-16
-3.800019915e-16
-4.014315587e-16
-4.221652261e-16
-4.421774156e-16
-4.614442119e-16
-4.799435903e-16
-4.976558173e-16
-5.145636909e-16
-5.306523802e-16
-5.459092935e-16
-5.603236403e-16
-5.738863161e-16
-5.865897198e-16
-5.98427714e-16
-6.093954934e-16
-6.1948936e-16
-6.287067969e-16
-6.37046103e-16
-6.445063256e-16
-6.51087009e-16
-6.567881976e-16
-6.616101008e-16
-6.655532052e-16
-6.686179208e-16
-6.708047213e-16
-6.721140228e-16
-3.363184435e-16
-2.075091479e-07
3.616543929e-08
1.338551709e-08
2.920973956e-07
1.204799361e-07
-4.993765642e-07
9.439218991e-07
1.094540827e-06
1.998232372e-07
-2.492296923e-17
-5.287316121e-17
-8.115092195e-17
-1.082281559e-16
-1.349303076e-16
-1.613645156e-16
-1.874920763e-16
-2.132602243e-16
-2.386254307e-16
-2.635443526e-16
-2.879752979e-16
-3.118791756e-16
-3.352180426e-16
-3.579548855e-16
-3.800549436e-16
-4.014870199e-16
-4.222230948e-16
-4.422375068e-16
-4.615064393e-16
-4.800078643e-16
-4.977221132e-16
-5.146318916e-16
-5.307223734e-16
-5.459808729e-16
-5.603966318e-16
-5.739605165e-16
-5.866649774e-16
-5.985038931e-16
-6.09472412e-16
-6.195669215e-16
-6.2878486e-16
-6.371245258e-16
-6.445849111e-16
-6.511657007e-16
-6.56866794e-16
-6.616885446e-16
-6.656313224e-16
-6.686955949e-16
-6.708819086e-16
-6.721905149e-16
-3.363487448e-16
-2.884207845e-07
-1.038768186e-07
-1.686003526e-07
1.603635293e-07
3.29013708e-07
-4.055325102e-07
1.18683139e-07
1.437704609e-06
1.504992848e-07
-2.491359186e-17
-5.290619459e-17
-8.115582939e-17
-1.082358e-16
-1.349452733e-16
-1.613836617e-16
-1.875147035e-16
-2.132846105e-16
-2.386516477e-16
-2.635729605e-16
-2.880068881e-16
-3.119137406e-16
-3.352551445e-16
-3.57993998e-16
-3.800959193e-16
-4.015298856e-16
-4.222678803e-16
-4.422841581e-16
-4.615547815e-16
-4.800578428e-16
-4.977736362e-16
-5.146849634e-16
-5.307768959e-16
-5.460367197e-16
-5.604536523e-16
-5.740185751e-16
-5.867239113e-16
-5.985635975e-16
-6.095327673e-16
-6.19627812e-16
-6.288461478e-16
-6.371861212e-16
-6.44646728e-16
-6.512275426e-16
-6.569285926e-16
-6.6175017e-16
-6.656926517e-16
-6.687565112e-16
-6.709423088e-16
-6.722503467e-16
-3.363699921e-16
-3.106674395e-07
-2.296020506e-07
-3.7600145e-07
-2.387984264e-07
5.714836215e-07
2.09832951e-07
-7.504477545e-07
7.159711423e-07
1.345961105e-07
-2.490536988e-17
-5.291027407e-17
-8.115205652e-17
-1.082401512e-16
-1.349568318e-16
-1.613990734e-16
-1.875319952e-16
-2.133023212e-16
-2.386702329e-16
-2.635928966e-16
-2.880286034e-16
-3.119375306e-16
-3.352806744e-16
-3.58020926e-16
-3.801241319e-16
-4.015594469e-16
-4.222988468e-16
-4.423164418e-16
-4.615882824e-16
-4.800924986e-16
-4.978094298e-16
-5.147218423e-16
-5.308148193e-16
-5.460756856e-16
-5.604935265e-16
-5.7405926e-16
-5.867653075e-16
-5.986055949e-16
-6.095752774e-16
-6.196707344e-16
-6.288894082e-16
-6.372295844e-16
-6.446903207e-16
-6.512711746e-16
-6.569721653e-16
-6.617935362e-16
-6.657357632e-16
-6.687993278e-16
-6.709846192e-16
-6.722921107e-16
-3.363815428e-16
-2.256987117e-07
-1.990743699e-07
-4.335303221e-07
-7.178730718e-07
3.800666521e-07
8.517998053e-07
-1.128998506e-06
-5.842799448e-08
1.195936615e-07
-2.490137742e-17
-5.289339209e-17
-8.114026731e-17
-1.08239135e-16
-1.349625923e-16
-1.614084474e-16
-1.875419718e-16
-2.133123727e-16
-2.386807113e-16
-2.636038409e-16
-2.880401612e-16
-3.119498312e-16
-3.352938203e-16
-3.580348475e-16
-3.801388264e-16
-4.015749683e-16
-4.223151929e-16
-4.423335597e-16
-4.616061043e-16
-4.801109388e-16
-4.978284939e-16
-5.14741559e-16
-5.308352187e-16
-5.460967267e-16
-5.605152022e-16
-5.740814983e-16
-5.867880428e-16
-5.986287491e-16
-6.095987662e-16
-6.196945141e-16
-6.289133934e-16
-6.372537477e-16
-6.447145325e-16
-6.512953864e-16
-6.569963168e-16
-6.618175319e-16
-6.657594866e-16
-6.688226898e-16
-6.710075826e-16
-6.723145738e-16
-3.363828754e-16
-5.95149098e-08
5.053745543e-08
-2.038759236e-07
-8.117882404e-07
1.654833407e-08
1.15503914e-06
-8.355559082e-07
-2.668451569e-07
1.23691022e-07
-2.489661375e-17
-5.28721511e-17
-8.112757966e-17
-1.082331729e-16
-1.349606687e-16
-1.614097231e-16
-1.875428867e-16
-2.133135627e-16
-2.386823448e-16
-2.636053542e-16
-2.88041131e-16
-3.119503103e-16
-3.352940421e-16
-3.580350846e-16
-3.801392567e-16
-4.015756824e-16
-4.223162223e-16
-4.423348056e-16
-4.616074683e-16
-4.801123777e-16
-4.978300099e-16
-5.147432603e-16
-5.308371697e-16
-5.460989602e-16
-5.605177322e-16
-5.74084311e-16
-5.867911429e-16
-5.986320275e-16
-6.096022553e-16
-6.196981453e-16
-6.289171466e-16
-6.37257522e-16
-6.447183444e-16
-6.512991418e-16
-6.56999932e-16
-6.618209855e-16
-6.657627339e-16
-6.688256122e-16
-6.710101443e-16
-6.72316663e-16
-3.363735174e-16
7.734147918e-08
3.808561543e-07
1.845180936e-07
-4.932794763e-07
-1.200381872e-07
1.052535998e-06
-2.61892367e-07
5.390993397e-08
1.597452928e-07
-2.488671904e-17
-5.285570906e-17
-8.112070988e-17
-1.082244023e-16
-1.349509309e-16
-1.614021935e-16
-1.875341913e-16
-2.133052282e-16
-2.386740611e-16
-2.635963851e-16
-2.880308996e-16
-3.119386391e-16
-3.352810706e-16
-3.580211807e-16
-3.801248233e-16
-4.015609979e-16
-4.223012825e-16
-4.423195021e-16
-4.615917171e-16
-4.800961413e-16
-4.97813352e-16
-5.14726235e-16
-5.308199141e-16
-5.460816305e-16
-5.605003692e-16
-5.740669507e-16
-5.867737557e-16
-5.986146749e-16
-6.095848815e-16
-6.19680737e-16
-6.288997266e-16
-6.372400536e-16
-6.44700782e-16
-6.512814871e-16
-6.569821636e-16
-6.618030372e-16
-6.657445407e-16
-6.688071587e-16
-6.709913295e-16
-6.722974838e-16
-3.363530898e-16
1.010152964e-07
5.966212211e-07
4.979898101e-07
-2.692260528e-08
4.982972836e-08
8.64949442e-07
1.866071034e-07
3.985119597e-07
1.449598086e-07
-2.487591403e-17
-5.284801596e-17
-8.112336882e-17
-1.082154041e-16
-1.349347731e-16
-1.613857664e-16
-1.875161492e-16
-2.132873361e-16
-2.386552773e-16
-2.635759445e-16
-2.880086133e-16
-3.119143167e-16
-3.352546747e-16
-3.57992959e-16
-3.800952584e-16
-4.015303977e-16
-4.222697802e-16
-4.422870798e-16
-4.615582669e-16
-4.800616275e-16
-4.977778474e-16
-5.14689904e-16
-5.307829468e-16
-5.460440903e-16
-5.604624353e-16
-5.740286953e-16
-5.867352385e-16
-5.985759413e-16
-6.095459334e-16
-6.196416453e-16
-6.288604142e-16
-6.372006233e-16
-6.446611928e-16
-6.512417647e-16
-6.569422516e-16
-6.617629086e-16
-6.657042115e-16
-6.68766573e-16
-6.709504655e-16
-6.722562893e-16
-3.363213434e-16
3.383710968e-08
6.36991923e-07
5.827717791e-07
2.965344556e-07
3.367815544e-07
7.551537343e-07
3.926066642e-07
3.59219357e-07
5.493902922e-08
-2.487158118e-17
-5.284684535e-17
-8.113432773e-17
-1.082087034e-16
-1.34915936e-16
-1.613622137e-16
-1.87489856e-16
-2.132603717e-16
-2.386261521e-16
-2.635436973e-16
-2.879735743e-16
-3.118767176e-16
-3.352144597e-16
-3.579502262e-16
-3.800503085e-16
-4.014836393e-16
-4.222213825e-16
-4.422370972e-16
-4.615066425e-16
-4.800084056e-16
-4.977230726e-16
-5.146337973e-16
-5.307256833e-16
-5.459859147e-16
-5.604034867e-16
-5.73969104e-16
-5.866751269e-16
-5.985153156e-16
-6.094849178e-16
-6.195802701e-16
-6.287987576e-16
-6.371386752e-16
-6.445990097e-16
-6.511793603e-16
-6.568796288e-16
-6.617001182e-16
-6.656411864e-16
-6.687033159e-16
-6.708869734e-16
-6.721925285e-16
-3.362780915e-16
-5.408924835e-08
5.722657782e-07
4.794188846e-07
3.451492675e-07
4.530489009e-07
5.593384847e-07
2.928492338e-07
-1.14943915e-07
2.365533248e-08
-2.487880341e-17
-5.284415306e-17
-8.114421095e-17
-1.082033758e-16
-1.34897531e-16
-1.613342474e-16
-1.87456863e-16
-2.132245552e-16
-2.385867619e-16
-2.634999862e-16
-2.87926003e-16
-3.118256505e-16
-3.351600496e-16
-3.578925927e-16
-3.799897644e-16
-4.0142045e-16
-4.221558444e-16
-4.421692575e-16
-4.614365547e-16
-4.79936118e-16
-4.976487507e-16
-5.145576261e-16
-5.306479296e-16
-5.459067939e-16
-5.603231948e-16
-5.738878385e-16
-5.865930072e-16
-5.984324838e-16
-6.094014807e-16
-6.19496284e-16
-6.287143119e-16
-6.370538522e-16
-6.445138839e-16
-6.510939116e-16
-6.567939435e-16
-6.616142127e-16
-6.655550714e-16
-6.686169987e-16
-6.708004804e-16
-6.721058081e-16
-3.362232255e-16
-1.21423956e-07
4.725785088e-07
3.123566457e-07
2.085702483e-07
2.926739634e-07
1.750591167e-07
-3.406458435e-08
-6.633003249e-07
1.417140007e-07
-2.489567887e-17
-5.283967452e-17
-8.113937899e-17
-1.081927655e-16
-1.348777483e-16
-1.6130267e-16
-1.874184793e-16
-2.131802168e-16
-2.385368749e-16
-2.634450674e-16
-2.87866345e-16
-3.117615084e-16
-3.350915485e-16
-3.57820021e-16
-3.799134233e-16
-4.013407117e-16
-4.220729538e-16
-4.420833898e-16
-4.613477976e-16
-4.79844589e-16
-4.975546832e-16
-5.144612103e-16
-5.305494332e-16
-5.458065413e-16
-5.602214408e-16
-5.737847463e-16
-5.864887916e-16
-5.983272969e-16
-6.092954255e-16
-6.193895361e-16
-6.286069514e-16
-6.369459946e-16
-6.444055806e-16
-6.509852956e-16
-6.566850444e-16
-6.615050619e-16
-6.654457313e-16
-6.685075004e-16
-6.706907906e-16
-6.719960098e-16
-3.361567366e-16
-1.613287112e-07
3.630737429e-07
1.428782409e-07
-1.558431251e-09
-6.279973592e-08
-2.293446481e-07
-2.339224494e-07
-6.760451561e-07
4.036791e-07
-2.491143739e-17
-5.283960966e-17
-8.111234115e-17
-1.081697823e-16
-1.348528258e-16
-1.612662202e-16
-1.873747161e-16
-2.131279519e-16
-2.384766577e-16
-2.633788087e-16
-2.877948205e-16
-3.11684658e-16
-3.350092968e-16
-3.577325947e-16
-3.798213155e-16
-4.012443634e-16
-4.219726655e-16
-4.4197942e-16
-4.612403297e-16
-4.797337849e-16
-4.974407882e-16
-5.1434454e-16
-5.304302796e-16
-5.456851817e-16
-5.600981663e-16
-5.736598358e-16
-5.863624222e-16
-5.981997056e-16
-6.091668067e-16
-6.192599731e-16
-6.284766712e-16
-6.368150756e-16
-6.442741729e-16
-6.508534777e-16
-6.56552884e-16
-6.613726533e-16
-6.653131216e-16
-6.683747359e-16
-6.705579355e-16
-6.718630776e-16
-3.360787588e-16
-1.763943355e-07
2.500189935e-07
-1.23761959e-08
-2.111106233e-07
-3.966524276e-07
-3.717917211e-07
-1.019302041e-07
1.082628691e-07
5.705357339e-07
-2.491307377e-17
-5.284699055e-17
-8.10683273e-17
-1.081312719e-16
-1.348182563e-16
-1.612228167e-16
-1.873235854e-16
-2.130671519e-16
-2.384066299e-16
-2.633015924e-16
-2.877115034e-16
-3.115951424e-16
-3.349134238e-16
-3.576305789e-16
-3.79713629e-16
-4.011315387e-16
-4.218551363e-16
-4.418574733e-16
-4.611142347e-16
-4.796038398e-16
-4.973072337e-16
-5.142077093e-16
-5.302905387e-16
-5.455428839e-16
-5.599535842e-16
-5.735132691e-16
-5.862141528e-16
-5.980499178e-16
-6.090157387e-16
-6.191078442e-16
-6.283236135e-16
-6.366612969e-16
-6.44119798e-16
-6.506986173e-16
-6.563976901e-16
-6.612171891e-16
-6.651574396e-16
-6.682189704e-16
-6.704021017e-16
-6.717072394e-16
-3.359894084e-16
-1.69950139e-07
1.356039801e-07
-1.433856817e-07
-3.671226771e-07
-4.492883655e-07
3.41450966e-08
4.502008606e-08
1.219884792e-06
3.57598842e-07
-2.489371341e-17
-5.285718703e-17
-8.102347545e-17
-1.080862293e-16
-1.34774458e-16
-1.611722994e-16
-1.872637786e-16
-2.129969311e-16
-2.38326861e-16
-2.632139399e-16
-2.876166683e-16
-3.114930686e-16
-3.348040623e-16
-3.575141334e-16
-3.795906388e-16
-4.010025406e-16
-4.217206008e-16
-4.417177927e-16
-4.609697775e-16
-4.794549145e-16
-4.971542671e-16
-5.140510449e-16
-5.30130553e-16
-5.453798977e-16
-5.597879856e-16
-5.733453691e-16
-5.860442184e-16
-5.978782667e-16
-6.08842592e-16
-6.189334533e-16
-6.281481853e-16
-6.364849808e-16
-6.439428073e-16
-6.505211046e-16
-6.562197678e-16
-6.610389674e-16
-6.649790896e-16
-6.680404999e-16
-6.702236226e-16
-6.715287979e-16
-3.358890053e-16
-1.442393436e-07
2.689027457e-08
-2.510501316e-07
-4.749559408e-07
-1.413877763e-07
9.23041333e-07
-6.858871349e-08
1.527721344e-06
-1.104090858e-08
-2.486150616e-17
-5.283890073e-17
-8.097621452e-17
-1.080409607e-16
-1.347248767e-16
-1.611157475e-16
-1.871955316e-16
-2.129170374e-16
-2.382373867e-16
-2.631160117e-16
-2.875105422e-16
-3.113786329e-16
-3.346813094e-16
-3.573834871e-16
-3.794526007e-16
-4.00857689e-16
-4.215694312e-16
-4.41560772e-16
-4.608073262e-16
-4.792874765e-16
-4.969822426e-16
-5.138749161e-16
-5.299506958e-16
-5.451966991e-16
-5.596018197e-16
-5.731565867e-16
-5.858531523e-16
-5.976852315e-16
-6.086478507e-16
-6.18737278e-16
-6.279508221e-16
-6.362866728e-16
-6.437437328e-16
-6.503214445e-16
-6.56019666e-16
-6.608385943e-16
-6.647785202e-16
-6.678398404e-16
-6.700229808e-16
-6.713283012e-16
-3.357778916e-16
-9.484811348e-08
-3.235932854e-08
-2.932256469e-07
-5.009327207e-07
3.922139373e-07
1.698232225e-06
-7.414052918e-07
5.738490134e-07
-3.169128304e-07
-2.48310931e-17
-5.279547748e-17
-8.092921752e-17
-1.079947887e-16
-1.346702223e-16
-1.610526417e-16
-1.871192729e-16
-2.128283093e-16
-2.381384932e-16
-2.630080134e-16
-2.873932364e-16
-3.112518385e-16
-3.345453787e-16
-3.572389494e-16
-3.792999526e-16
-4.006974443e-16
-4.214021138e-16
-4.413868763e-16
-4.606273792e-16
-4.791020437e-16
-4.967917839e-16
-5.136798592e-16
-5.297515102e-16
-5.4499387e-16
-5.593956522e-16
-5.7294752e-16
-5.856415314e-16
-5.974713888e-16
-6.084321192e-16
-6.185199747e-16
-6.277322128e-16
-6.360669968e-16
-6.435232147e-16
-6.501002944e-16
-6.55798046e-16
-6.606166692e-16
-6.64556427e-16
-6.676177223e-16
-6.69800948e-16
-6.711064099e-16
-3.356563806e-16
-3.168630223e-08
-1.718201187e-08
-2.593058651e-07
-4.513254586e-07
7.628201706e-07
1.892183372e-06
-9.961037609e-07
-7.706452073e-07
-1.610414751e-07
-2.481016395e-17
-5.273504543e-17
-8.089289582e-17
-1.079520274e-16
-1.346129292e-16
-1.609827449e-16
-1.870352586e-16
-2.127315208e-16
-2.380309315e-16
-2.62890106e-16
-2.872648141e-16
-3.111130091e-16
-3.343966082e-16
-3.570808321e-16
-3.791330943e-16
-4.005223145e-16
-4.212191859e-16
-4.411967315e-16
-4.604305824e-16
-4.788991548e-16
-4.965834429e-16
-5.134665521e-16
-5.295337301e-16
-5.447720066e-16
-5.591702013e-16
-5.727188636e-16
-5.854101029e-16
-5.972375301e-16
-6.081961919e-16
-6.182823023e-16
-6.27493074e-16
-6.358267212e-16
-6.432820332e-16
-6.498583987e-16
-6.555557026e-16
-6.603740072e-16
-6.643136013e-16
-6.673748849e-16
-6.695582101e-16
-6.708638763e-16
-3.355250257e-16
2.250363238e-08
5.20610819e-08
-1.876788943e-07
-3.878313276e-07
6.435334195e-07
1.130505354e-06
-4.175611409e-07
-1.380672343e-06
2.032308166e-07
-2.479938807e-17
-5.265995515e-17
-8.085576027e-17
-1.079077354e-16
-1.345519961e-16
-1.609056082e-16
-1.869436462e-16
-2.126272938e-16
-2.379150441e-16
-2.62762588e-16
-2.871255041e-16
-3.109623657e-16
-3.342353312e-16
-3.569096359e-16
-3.789525414e-16
-4.003328212e-16
-4.210212846e-16
-4.409909605e-16
-4.602175973e-16
-4.786796329e-16
-4.963579556e-16
-5.132357255e-16
-5.29298026e-16
-5.445319542e-16
-5.589262768e-16
-5.724714578e-16
-5.851596545e-16
-5.969844737e-16
-6.079408973e-16
-6.180251115e-16
-6.272343936e-16
-6.3556675e-16
-6.43021117e-16
-6.495967398e-16
-6.552935229e-16
-6.601115139e-16