/*--------------------------------*- C++ -*----------------------------------*\
  =========                 |
  \\      /  F ield         | OpenFOAM: The Open Source CFD Toolbox
   \\    /   O peration     | Website:  https://openfoam.org
    \\  /    A nd           | Version:  6
     \\/     M anipulation  |
\*---------------------------------------------------------------------------*/
FoamFile
{
    version     2.0;
    format      ascii;
    class       volScalarField;
    location    "0.13";
    object      p;
}
// * * * * * * * * * * * * * * * * * * * * * * * * * * * * * * * * * * * * * //

dimensions      [1 -1 -2 0 0 0 0];

internalField   nonuniform List<scalar> 
2500
(
0.5592358321
0.4468805468
0.4174080084
0.3652465743
0.3676769018
0.4046401185
0.4288803243
0.4682971307
27276.49445
27391.76393
27505.75207
27617.77868
27726.95029
27832.47393
27933.67594
28030.01393
28121.08086
28206.60211
28286.42685
28360.51533
28428.92363
28491.78733
28549.30512
28601.72339
28649.32213
28692.40266
28731.27729
28766.26072
28797.66333
28825.78602
28850.91635
28873.32599
28893.26895
28910.98077
28926.67814
28940.55907
28952.80336
28963.57329
28973.01448
28981.25681
28988.41536
28994.59137
28999.87318
29004.33704
29008.04791
29011.06014
29013.41811
29015.15669
29016.30166
29016.87
0.3203532043
0.3609016921
0.3608638824
0.343510305
0.3485407404
0.3796445983
0.406723713
0.4206724599
27276.46475
27392.75973
27507.71423
27620.63324
27730.59773
27836.795
27938.53941
28035.28447
28126.62609
28212.29826
28292.16286
28366.19535
28434.46819
28497.13328
28554.4048
28606.54315
28653.84062
28696.60894
28735.1689
28769.84199
28800.94376
28828.7789
28853.63761
28875.79323
28895.50068
28912.99582
28928.49519
28942.19633
28954.27834
28964.90267
28974.214
28982.34124
28989.39854
28995.48623
29000.6918
29005.0907
29008.7472
29011.71507
29014.03817
29015.75097
29016.87896
29017.43902
0.1407275568
0.3031200984
0.350434803
0.3592747313
0.3588206207
0.3808518095
0.3998283352
0.3998377124
27276.45758
27394.79961
27511.71239
27626.44193
27738.01195
27845.56846
27948.40179
28045.95809
28137.8405
28223.80182
28303.73092
28377.63513
28445.62072
28507.87314
28564.63807
28616.20434
28662.88891
28705.02427
28742.94817
28776.99541
28807.49171
28834.74912
28859.06293
28880.70961
28899.94576
28917.00768
28932.11153
28945.4538
28957.21211
28967.54615
28976.5987
28984.49674
28991.35246
28997.26437
29002.31821
29006.5879
29010.13629
29013.01594
29015.2697
29016.93121
29018.02538
29018.56862
0.005832422095
0.2332522974
0.3200946279
0.3676771736
0.3803469309
0.3913848926
0.4037224699
0.4064629853
27276.47148
27397.95972
27517.89412
27635.40964
27749.43912
27859.06453
27963.54066
28062.30512
28154.97562
28241.33737
28321.32377
28394.99353
28462.50659
28524.10075
28580.07039
28630.7477
28676.48695
28717.65171
28754.60478
28787.70051
28817.27931
28843.66377
28867.15622
28888.03739
28906.56595
28922.97853
28937.49037
28950.29617
28961.5711
28971.47208
28980.13891
28987.69553
28994.25119
28999.90157
29004.7298
29008.8074
29012.19514
29014.94373
29017.09448
29018.67982
29019.72373
29020.242
-0.07714180659
0.1631725999
0.2718202679
0.3610124283
0.3910821482
0.389880224
0.4030556796
0.4116828328
27276.48641
27402.36312
27526.49496
27647.86276
27765.26967
27877.70916
27984.39052
28084.74553
28178.41907
28265.24798
28345.23314
28418.50867
28485.3115
28545.95319
28600.79546
28650.22961
28694.66006
28734.4915
28770.11942
28801.9233
28830.26206
28855.47125
28877.86162
28897.71868
28915.303
28930.85103
28944.5762
28956.67032
28967.305
28976.63312
28984.79028
28991.89624
28998.05617
29003.3619
29007.893
29011.71777
29014.89413
29017.47035
29019.48567
29020.97089
29021.94873
29022.43417
-0.1035225877
0.09879730874
0.2058525628
0.3265784649
0.3755618935
0.3903122492
0.3985304205
0.414729223
27276.50092
27408.1921
27537.86
27664.27593
27786.06669
27902.11101
28011.56589
28113.86674
28208.70663
28296.00201
28375.85199
28448.49657
28514.27774
28573.60538
28626.92908
28674.71578
28717.43279
28755.53548
28789.45883
28819.61199
28846.37519
28870.0984
28891.1012
28909.67359
28926.07725
28940.54728
28953.29399
28964.50486
28974.34641
28982.96606
28990.49383
28997.04396
29002.71634
29007.59785
29011.76351
29015.27755
29018.19427
29020.55885
29022.40796
29023.77033
29024.66712
29025.1123
-0.08318423064
0.05245427265
0.1391107724
0.2761931883
0.3633735398
0.3979784227
0.3893053001
0.4191563328
27276.51942
27415.70697
27552.47701
27685.31314
27812.60893
27933.10111
28045.89422
28150.44805
28246.53809
28334.20109
28413.6761
28485.34796
28549.69775
28607.26189
28658.60022
28704.27226
28744.82052
28780.75955
28812.56922
28840.69146
28865.52916
28887.4468
28906.77208
28923.79811
28938.78605
28951.96778
28963.54856
28973.70965
28982.61066
28990.39183
28997.17599
29003.0704
29008.16835
29012.55061
29016.28663
29019.43563
29022.04755
29024.16382
29025.818
29027.03633
29027.83814
29028.23613
-0.04529001675
0.02399814087
0.08315050504
0.215746251
0.33949958
0.393397062
0.3911591055
0.4269435058
27276.56338
27425.27917
27571.02775
27711.88909
27845.9531
27971.7887
28088.46049
28195.49212
28292.79587
28380.58779
28459.30325
28529.52155
28591.90374
28647.14471
28695.93826
28738.95318
28776.81825
28810.11376
28839.36788
28865.05631
28887.60405
28907.38847
28924.7431
28939.96163
28953.30198
28964.99014
28975.22376
28984.17545
28991.99571
28998.81556
29004.74885
29009.89425
29014.33704
29018.1506
29021.39774
29024.13177
29026.39747
29028.23187
29029.66489
29030.71987
29031.41397
29031.75846
-0.01329006068
0.009273596977
0.03920629918
0.1437577781
0.2813362348
0.367787979
0.4112574609
0.4206029513
27276.64069
27437.4362
27594.46502
27745.26009
27887.52335
28019.63801
28140.6652
28250.26284
28348.56468
28436.05056
28513.42756
28581.53148
28641.25139
28693.47557
28739.05563
28778.78474
28813.38637
28843.51022
28869.73312
28892.56276
28912.44316
28929.76084
28944.85112
28958.00426
28969.47104
28979.46797
28988.18183
28995.77362
29002.38211
29008.12681
29013.11055
29017.42167
29021.13591
29024.318
29027.02295
29029.29723
29031.17968
29032.70229
29033.89081
29034.76527
29035.34039
29035.6258
-0.005500417642
-0.0008333753813
0.00554994189
0.07020243902
0.1941415049
0.3134475059
0.4061812341
0.3380611895
27276.71518
27452.95066
27624.13427
27787.15961
27939.23898
28078.57201
28204.2973
28316.32789
28415.14862
28501.62192
28576.82504
28641.92585
28698.09541
28746.45132
28788.0248
28823.74471
28854.4332
28880.8086
28903.49257
28923.0194
28939.84594
28954.36154
28966.89725
28977.73416
28987.11087
28995.22982
29002.26289
29008.35603
29013.63325
29018.19998
29022.14582
29025.54693
29028.46792
29030.96349
29033.07979
29034.85549
29036.32272
29037.50778
29038.43176
29039.11102
29039.55751
29039.77906
-0.01122092456
-0.005934899901
-0.01243169184
0.0155304377
0.110538798
0.2297906854
0.3065819515
0.146521667
27277.67214
27473.04728
27661.95838
27840.00027
28003.69642
28151.11008
28281.62148
28395.60119
28494.07921
28578.46334
28650.3252
28711.25215
28762.75394
28806.21051
28842.84859
28873.73716
28899.79417
28921.79943
28940.4102
28956.17732
28969.56065
28980.94311
28990.6431
28998.92522
29006.00939
29012.0785
29017.28482
29021.75528
29025.59582
29028.89496
29031.72678
29034.15327
29036.22629
29037.98922
29039.4782
29040.7232
29041.74889
29042.57532
29043.21843
29043.69052
29044.00056
29044.15437
-0.01593971005
-0.01062371429
-0.01386984512
-0.0114965817
0.05779030147
0.136980975
0.1118292485
-0.09079990066
27278.22768
27499.00501
27710.64403
27907.17911
28084.4299
28240.54566
28375.4743
28490.37454
28587.10319
28667.8273
28734.76102
28790.00468
28835.45892
28872.78944
28903.42315
28928.56241
28949.20809
28966.1859
28980.17256
28991.72008
29001.27724
29009.20814
29015.80779
29021.31518
29025.9239
29029.79089
29033.04355
29035.78539
29038.10071
29040.05821
29041.71402
29043.114
29044.29572
29045.28987
29046.12155
29046.81119
29047.37531
29047.82715
29048.1771
29048.43307
29048.6008
29048.68399
-0.021241938
-0.01675008165
-0.01321572081
-0.02058209289
0.02780407629
0.05273759721
-0.09774928933
-0.1997527678
27277.53504
27533.26688
27774.42056
27993.63073
28186.28958
28351.1625
28489.35224
28603.31821
28696.13176
28770.98257
28830.88829
28878.5482
28916.28927
28946.06678
28969.4937
28987.88267
29002.29121
29013.56475
29022.37522
29029.25429
29034.62113
29038.80539
29042.06572
29044.60476
29046.58107
29048.11855
29049.314
29050.24296
29050.96434
29051.52409
29051.958
29052.29396
29052.55365
29052.75393
29052.90789
29053.02565
29053.11498
29053.18184
29053.2307
29053.26484
29053.28655
29053.2973
-0.02971344099
-0.02561751663
-0.01912580723
-0.02038176228
-0.004708805297
-0.02671813559
-0.2246529381
0.0354424459
27278.98645
27580.93962
27860.12267
28106.61693
28315.92367
28488.45592
28627.45112
28737.41395
28823.12426
28889.08485
28939.26361
28977.01283
29005.08534
29025.69671
29040.60396
29051.18496
29058.51077
29063.40796
29066.51049
29068.30183
29069.14866
29069.32757
29069.0459
29068.45802
29067.67797
29066.78915
29065.85186
29064.909
29063.99052
29063.11672
29062.30087
29061.5511
29060.87191
29060.26526
29059.73139
29059.26948
29058.87809
29058.5555
29058.3
29058.11
29057.98425
29057.92184
-0.04196144816
-0.03701339808
-0.03100643046
-0.02863616395
-0.03731723219
-0.1012605557
-0.2272238336
0.6600261761
27282.52873
27649.79017
27978.48411
28256.76622
28482.31827
28659.28023
28794.58123
28895.76388
28969.86943
29022.97239
29060.07184
29085.15726
29101.3453
29111.03314
29116.04253
29117.74422
29117.16049
29115.04721
29111.95818
29108.29498
29104.34515
29100.31131
29096.33322
29092.50437
29088.88454
29085.50913
29082.39618
29079.55157
29076.9729
29074.6523
29072.57855
29070.73858
29069.11857
29067.70474
29066.48388
29065.44375
29064.57334
29063.86304
29063.30474
29062.89189
29062.61956
29062.48446
-0.05756322331
-0.05267597882
-0.04856407283
-0.05138363157
-0.04770321207
-0.1427975175
-0.1350036316
1.477972177
27292.45547
27755.12533
28147.21128
28459.6134
28697.28912
28871.76261
28995.83239
29081.196
29137.62287
29172.86883
29192.89885
29202.20308
29204.10877
29201.05075
29194.79106
29186.59077
29177.34135
29167.66356
29157.98124
29148.57584
29139.62664
29131.24026
29123.47221
29116.3426
29109.84756
29103.96751
29098.67301
29093.92907
29089.69809
29085.94193
29082.62336
29079.70701
29077.15997
29074.95217
29073.05655
29071.44923
29070.10943
29069.01954
29068.16498
29067.5342
29067.1186
29066.91246
-0.07578315266
-0.07153604584
-0.06758910383
-0.07415546624
-0.05947252307
-0.1542995912
-0.04070659702
2.10264399
27326.3603
27928.42533
28395.55797
28737.15419
28975.4559
29134.65437
29235.79958
29295.57519
29326.56648
29337.98891
29336.45785
29326.65231
29311.83976
29294.27303
29275.48256
29256.48836
29237.95212
29220.28577
29203.72854
29188.40153
29174.34627
29161.55178
29149.97361
29139.54708
29130.19644
29121.84116
29114.40013
29107.79447
29101.94931
29096.79482
29092.26682
29088.30703
29084.86305
29081.88831
29079.34186
29077.1881
29075.39656
29073.94164
29072.80239
29071.9623
29071.40912
29071.13479
-0.09635706229
-0.09252140812
-0.09003517185
-0.09801955938
-0.09427275615
-0.1341929899
-0.07277974923
2.16489068
27449.35577
28233.452
28769.38541
29117.97967
29332.74168
29455.62138
29517.15706
29538.75582
29535.09226
29516.07249
29488.29879
29456.11404
29422.329
29388.72208
29356.3801
29325.92978
29297.69445
29271.80006
29248.24664
29226.95641
29207.80598
29190.64779
29175.32417
29161.67646
29149.55076
29138.80136
29129.29268
29120.9002
29113.51069
29107.02207
29101.34295
29096.39209
29092.09776
29088.39708
29085.23539
29082.56568
29080.348
29078.54902
29077.14159
29076.10441
29075.42175
29075.08325
-0.1184758169
-0.1142835003
-0.1137819169
-0.1174052967
-0.1291846674
-0.1157779918
-0.2543697555
1.521823058
27843.52683
28782.84307
29330.59593
29632.69515
29781.9669
29837.97824
29838.48537
29807.2229
29758.99108
29702.92166
29644.55882
29587.18162
29532.64404
29481.90897
29435.38802
29393.15774
29355.09706
29320.97438
29290.50242
29263.37226
29239.2742
29217.90995
29198.99953
29182.28456
29167.52951
29154.52158
29143.0698
29133.00374
29124.172
29116.44065
29109.69166
29103.82149
29098.7397
29094.36774
29090.63786
29087.49214
29084.88166
29082.76577
29081.11147
29079.89295
29079.09118
29078.69365
-0.1408900524
-0.1362669404
-0.1376737269
-0.1386409213
-0.1630463368
-0.1200065548
-0.3038035556
0.4697259967
28831.14183
29719.71752
30137.72767
30300.40463
30324.56183
30275.90967
30191.6282
30092.68796
29990.74578
29892.07591
29799.84071
29715.41448
29639.15977
29570.8839
29510.10678
29456.2172
29408.56251
29366.49871
29329.41703
29296.75664
29268.00919
29242.7189
29220.48007
29200.9334
29183.76183
29168.68635
29155.46192
29143.87371
29133.73371
29124.87767
29117.16239
29110.46336
29104.67267
29099.69719
29095.45705
29091.88427
29088.92166
29086.52184
29084.64649
29083.26566
29082.35732
29081.90698
-0.1623653334
-0.1580426123
-0.160479602
-0.162877391
-0.1847237418
-0.1612268021
-0.2923549179
-0.3953616348
30679.54797
31123.73608
31200.68001
31106.89003
30940.10915
30749.55178
30559.4767
30381.18218
30219.24405
30074.80479
29947.31909
29835.47899
29737.69857
29652.3612
29577.93871
29513.04229
29456.43748
29407.04128
29363.91074
29326.22846
29293.28747
29264.47688
29239.26898
29217.20769
29197.89868
29181.00074
29166.21852
29153.2962
29142.01221
29132.1747
29123.61768
29116.19773
29109.79128
29104.29218
29099.60976
29095.66712
29092.39977
29089.75438
29087.68791
29086.1668
29085.16638
29084.67042
-0.1818075783
-0.1785701438
-0.181817245
-0.1900460121
-0.2094380289
-0.2419597016
-0.3240906425
-0.9564444771
33288.647
32893.58082
32434.85217
31986.60972
31579.55819
31222.77675
30915.57853
30653.33749
30430.25223
30240.58428
30079.15366
29941.48439
29823.79434
29722.92341
29636.24434
29561.57554
29497.10372
29441.31816
29392.95627
29350.95919
29314.4356
29282.63254
29254.9117
29230.73021
29209.625
29191.20003
29175.11587
29161.08105
29148.84496
29138.19201
29128.93667
29120.91943
29114.00338
29108.07135
29103.02355
29098.77559
29095.2568
29092.40891
29090.1849
29088.54819
29087.47189
29086.93836
-0.1979378899
-0.1961081791
-0.1999606661
-0.2151387995
-0.2293743385
-0.3127861349
-0.2878861421
-1.300186683
36128.94255
34728.98404
33658.74908
32825.24702
32168.78628
31646.43846
31226.72935
30886.337
30607.84061
30378.12327
30187.22378
30027.50787
29893.06876
29779.29202
29682.53835
29599.91085
29529.08305
29468.17095
29415.63681
29370.2164
29330.86333
29296.70622
29267.01542
29241.17688
29218.67157
29199.05908
29181.96451
29167.06782
29154.0953
29142.81246
29133.01835
29124.54075
29117.23228
29110.96713
29105.63838
29101.15577
29097.44385
29094.44045
29092.09551
29090.37008
29089.23556
29088.6732
-0.2093716886
-0.2086942808
-0.2122228874
-0.2319661764
-0.234032006
-0.349048244
-0.1631963133
-1.396506375
38505.42771
36240.5077
34645.74423
33486.75912
32623.84431
31967.42088
31458.53412
31057.41929
30736.63446
30476.83313
30264.10204
30088.2485
29941.67638
29818.63434
29714.70388
29626.44477
29551.14553
29486.64501
29431.20317
29383.40605
29342.09506
29306.31374
29275.26715
29248.2907
29224.82578
29204.40076
29186.61585
29171.13109
29157.65664
29145.94492
29135.78429
29126.99374
29119.41868
29112.92735
29107.40794
29102.76615
29098.92325
29095.81443
29093.38753
29091.60197
29090.42801
29089.8461
-0.2152396257
-0.2151277999
-0.2179812405
-0.2391397246
-0.2301759675
-0.3500659993
-0.02131437684
-1.311149107
39847.65922
37091.14505
35196.48923
33851.9499
32872.25778
32140.77079
31582.50552
31148.13135
30804.41792
30528.45448
30304.09016
30119.6989
29966.74771
29838.86066
29731.19491
29640.01664
29562.40775
29496.05937
29439.12417
29390.10923
29347.79702
29311.18658
29279.44896
29251.89331
29227.94052
29207.10282
29188.96762
29173.18469
29159.45592
29147.52703
29137.18089
29128.23203
29120.52216
29113.9165
29108.30074
29103.57853
29099.66946
29096.5074
29094.03911
29092.2232
29091.02931
29090.43754
-0.2152396278
-0.2151278022
-0.2179812407
-0.2391397187
-0.2301759496
-0.3500659628
-0.02131433015
-1.311149729
39847.65904
37091.145
35196.48919
33851.94986
32872.25774
32140.77073
31582.50546
31148.13129
30804.41786
30528.45443
30304.09011
30119.69886
29966.74767
29838.86063
29731.19489
29640.01663
29562.40775
29496.05937
29439.12418
29390.10925
29347.79705
29311.18661
29279.44901
29251.89335
29227.94057
29207.10288
29188.96769
29173.18476
29159.456
29147.52711
29137.18098
29128.23212
29120.52225
29113.9166
29108.30083
29103.57863
29099.66957
29096.50751
29094.03921
29092.2233
29091.02942
29090.43765
-0.2093716959
-0.2086942901
-0.2122228922
-0.2319661641
-0.2340319586
-0.3490481183
-0.1631961322
-1.396507832
38505.42713
36240.50756
34645.74412
33486.759
32623.84417
31967.42073
31458.53395
31057.41911
30736.63428
30476.83296
30264.10189
30088.24837
29941.67627
29818.63425
29714.70381
29626.44473
29551.14551
29486.64502
29431.2032
29383.40611
29342.09514
29306.31384
29275.26728
29248.29084
29224.82594
29204.40093
29186.61605
29171.1313
29157.65686
29145.94516
29135.78454
29126.994
29119.41895
29112.92763
29107.40823
29102.76645
29098.92356
29095.81474
29093.38784
29091.60229
29090.42833
29089.84642
-0.1979379052
-0.1961082016
-0.1999606875
-0.2151388017
-0.2293742963
-0.3127859503
-0.2878858061
-1.300187081
36128.94183
34728.98387
33658.74893
32825.24683
32168.78605
31646.43819
31226.72905
30886.33669
30607.8403
30378.12299
30187.22351
30027.50764
29893.06857
29779.29187
29682.53824
29599.91078
29529.08302
29468.17096
29415.63687
29370.21649
29330.86346
29296.70639
29267.01563
29241.17712
29218.67184
29199.05938
29181.96483
29167.06818
29154.09567
29142.81286
29133.01877
29124.54119
29117.23273
29110.9676
29105.63887
29101.15627
29097.44435
29094.44096
29092.09603
29090.37061
29089.23609
29088.67373
-0.1818076057
-0.1785701871
-0.1818172978
-0.1900460626
-0.2094380655
-0.2419596247
-0.3240903586
-0.9564435144
33288.6465
32893.58072
32434.85202
31986.60948
31579.55786
31222.77635
30915.5781
30653.33704
30430.25178
30240.58386
30079.15328
29941.48406
29823.79406
29722.92319
29636.24418
29561.57544
29497.10369
29441.31818
29392.95636
29350.95933
29314.43579
29282.63278
29254.91199
29230.73055
29209.62538
29191.20045
29175.11633
29161.08154
29148.84549
29138.19257
29128.93726
29120.92004
29114.00401
29108.072
29103.02423
29098.77629
29095.25751
29092.40963
29090.18563
29088.54893
29087.47263
29086.9391
-0.162365377
-0.1580426805
-0.1604796917
-0.1628775079
-0.184723921
-0.1612270491
-0.2923552114
-0.3953593447
30679.54843
31123.73626
31200.67993
31106.88974
30940.1087
30749.55123
30559.47609
30381.18157
30219.24345
30074.80423
29947.31859
29835.47855
29737.69821
29652.36092
29577.93851
29513.04216
29456.43744
29407.04131
29363.91085
29326.22864
29293.28771
29264.4772
29239.26935
29217.20813
29197.89917
29181.00129
29166.21911
29153.29684
29142.01289
29132.17542
29123.61843
29116.19852
29109.7921
29104.29303
29099.61063
29095.66802
29092.40068
29089.75531
29087.68886
29086.16775
29085.16733
29084.67138
-0.1408901165
-0.1362670305
-0.1376738386
-0.138641065
-0.1630466131
-0.1200071244
-0.3038048181
0.4697266383
28831.14343
29719.718
30137.72761
30300.40422
30324.5612
30275.90892
30191.6274
30092.68715
29990.745
29892.07519
29799.84008
29715.41393
29639.15932
29570.88355
29510.10653
29456.21705
29408.56246
29366.49875
29329.41717
29296.75686
29268.0095
29242.71929
29220.48053
29200.93393
29183.76244
29168.68702
29155.46265
29143.87449
29133.73455
29124.87855
29117.16332
29110.46434
29104.67368
29099.69823
29095.45812
29091.88537
29088.92278
29086.52299
29084.64764
29083.26682
29082.35849
29081.90816
-0.1184759072
-0.1142836103
-0.1137820228
-0.1174053628
-0.1291847864
-0.1157783089
-0.254370922
1.521821578
27843.52805
28782.8434
29330.59567
29632.6945
29781.96601
29837.97722
29838.4843
29807.22185
29758.9901
29702.92076
29644.55803
29587.18096
29532.6435
29481.90855
29435.38773
29393.15757
29355.097
29320.97444
29290.50259
29263.37254
29239.27457
29217.91042
29199.00009
29182.28521
29167.53024
29154.52238
29143.07066
29133.00467
29124.173
29116.4417
29109.69277
29103.82265
29098.7409
29094.36898
29090.63913
29087.49345
29084.883
29082.76712
29081.11284
29079.89433
29079.09258
29078.69505
-0.09635718902
-0.0925215578
-0.09003528382
-0.09801948918
-0.09427239476
-0.1341921758
-0.07277908434
2.164893192
27449.35646
28233.45194
28769.38477
29117.97863
29332.7404
29455.62
29517.15568
29538.7545
29535.09104
29516.0714
29488.29784
29456.11324
29422.32836
29388.72159
29356.37976
29325.92958
29297.6944
29271.80014
29248.24684
29226.95673
29207.80642
29190.64834
29175.32482
29161.67721
29149.5516
29138.80229
29129.29369
29120.90129
29113.51185
29107.0233
29101.34424
29096.39344
29092.09915
29088.39852
29085.23688
29082.5672
29080.34955
29078.55059
29077.14318
29076.10602
29075.42337
29075.08487
-0.07578332868
-0.07153629237
-0.06758932715
-0.07415542857
-0.05947183564
-0.1542977692
-0.04070418815
2.102645379
27326.36032
27928.42473
28395.55677
28737.15259
28975.4541
29134.65254
29235.7978
29295.57355
29326.565
29337.98761
29336.45674
29326.65139
29311.83903
29294.27247
29275.48218
29256.48815
29237.95207
29220.28587
29203.72878
29188.40191
29174.34678
29161.55241
29149.97436
29139.54794
29130.19741
29121.84223
29114.40129
29107.79572
29101.95064
29096.79622
29092.26829
29088.30856
29084.86464
29081.88996
29079.34355
29077.18983
29075.39833
29073.94344
29072.80421
29071.96413
29071.41097
29071.13664
-0.0575634559
-0.05267640629
-0.04856459642
-0.05138403941
-0.04770294617
-0.1427962881
-0.1350015054
1.477973017
27292.45525
27755.12415
28147.20933
28459.61104
28697.28665
28871.76022
28995.83017
29081.194
29137.62111
29172.86731
29192.89757
29202.20203
29204.10794
29201.05014
29194.79065
29186.59054
29177.3413
29167.66369
29157.98153
29148.57628
29139.62723
29131.24099
29123.47306
29116.34358
29109.84866
29103.96871
29098.67432
29093.93048
29089.69959
29085.94351
29082.62502
29079.70874
29077.16177
29074.95402
29073.05845
29071.45117
29070.11142
29069.02156
29068.16702
29067.53626
29067.12067
29066.91454
-0.041961732
-0.0370140811
-0.03100747497
-0.02863752064
-0.03731834396
-0.1012610628
-0.2272234367
0.6600290658
27282.52896
27649.78823
27978.48104
28256.76281
28482.31493
28659.27717
28794.5785
28895.7615
28969.86738
29022.97066
29060.0704
29085.15609
29101.34438
29111.03247
29116.04209
29117.74399
29117.16046
29115.04737
29111.95852
29108.29549
29104.34582
29100.31214
29096.33419
29092.50548
29088.88577
29085.51048
29082.39764
29079.55314
29076.97457
29074.65407
29072.5804
29070.74051
29069.12057
29067.7068
29066.48599
29065.44592
29064.57555
29063.86529
29063.30701
29062.89418
29062.62187
29062.48678
-0.02971375333
-0.02561846685
-0.01912751594
-0.02038425301
-0.004711481823
-0.02671991386
-0.2246536091
0.03544479708
27278.98681
27580.9359
27860.11769
28106.61203
28315.91929
28488.45213
28627.44788
28737.41121
28823.12194
28889.08292
28939.26203
28977.01156
29005.08436
29025.696
29040.6035
29051.18474
29058.51077
29063.40817
29066.51089
29068.30241
29069.14942
29069.3285
29069.04698
29068.45926
29067.67934
29066.79066
29065.85349
29064.91075
29063.99237
29063.11867
29062.30291
29061.55323
29060.87412
29060.26754
29059.73373
29059.27188
29058.88053
29058.55799
29058.30251
29058.11254
29057.9868
29057.9244
-0.0212422344
-0.01675121774
-0.01321802363
-0.02058542527
0.02780073515
0.0527358667
-0.09774950164
-0.1997396117
27277.53699
27533.25861
27774.41232
27993.62391
28186.28408
28351.15801
28489.34855
28603.31515
28696.12923
28770.98048
28830.8866
28878.54685
28916.28825
28946.06605
28969.49323
28987.88246
29002.29124
29013.565
29022.37569
29029.25496
29034.62199
29038.80643
29042.06693
29044.60613
29046.58259
29048.12021
29049.3158
29050.24488
29050.96638
29051.52624
29051.96025
29052.2963
29052.55607
29052.75643
29052.91046
29053.02828
29053.11766
29053.18457
29053.23346
29053.26762
29053.28935
29053.30011
-0.01593991676
-0.01062485104
-0.01387231176
-0.01149988603
0.05778733526
0.1369795665
0.1118294173
-0.09118961805
27278.1747
27498.98192
27710.63108
27907.1705
28084.42356
28240.54071
28375.47031
28490.37128
28587.10051
28667.82511
28734.75926
28790.00329
28835.45787
28872.7887
28903.42271
28928.56224
28949.20817
28966.18622
28980.17311
28991.72084
29001.27821
29009.20929
29015.80913
29021.31669
29025.92557
29029.79272
29033.04552
29035.7875
29038.10294
29040.06056
29041.71647
29043.11656
29044.29836
29045.29259
29046.12435
29046.81405
29047.37823
29047.83012
29048.1801
29048.43611
29048.60385
29048.68706
-0.01122093979
-0.005935769388
-0.01243353963
0.01552811165
0.1105366158
0.2297889598
0.306580896
0.1462944625
27277.64152
27473.02908
27661.94659
27839.99193
28003.69011
28151.1051
28281.61744
28395.59787
28494.07649
28578.46111
28650.32341
28711.25075
28762.7529
28806.20979
28842.84817
28873.73703
28899.79431
28921.79983
28940.41084
28956.17818
28969.56173
28980.94439
28990.64458
28998.92688
29006.01122
29012.08049
29017.28697
29021.75757
29025.59824
29028.89751
29031.72945
29034.15604
29036.22917
29037.99218
29039.48124
29040.72631
29041.75207
29042.57854
29043.22169
29043.69382
29044.00387
29044.15769
-0.005500133951
-0.0008335848437
0.00554931458
0.07020132586
0.1941397355
0.3134452214
0.4061787507
0.3380588661
27276.7151
27452.9433
27624.1266
27787.15295
27939.23342
28078.56738
28204.29343
28316.32466
28415.14593
28501.61971
28576.82327
28641.92447
28698.09439
28746.45064
28788.02443
28823.74464
28854.43341
28880.80908
28903.49331
28923.02037
28939.84714
28954.36296
28966.89887
28977.73598
28987.11287
28995.232
29002.26523
29008.35851
29013.63588
29018.20274
29022.14871
29025.54993
29028.47102
29030.96669
29033.08308
29034.85885
29036.32614
29037.51126
29038.43529
29039.11458
29039.56109
29039.78265
-0.01328939977
0.009274322167
0.03920681689
0.1437572114
0.2813342371
0.3677853105
0.4112545665
0.4206022466
27276.64095
27437.4327
27594.46012
27745.25506
27887.5187
28019.63388
28140.66161
28250.25977
28348.56209
28436.04843
28513.42584
28581.53015
28641.25042
28693.47495
28739.05533
28778.78475
28813.38667
28843.5108
28869.73396
28892.56385
28912.44449
28929.7624
28944.8529
28958.00623
28969.47321
28979.47033
28988.18435
28995.77631
29002.38495
29008.12979
29013.11366
29017.42491
29021.13926
29024.32144
29027.02648
29029.30085
29031.18337
29032.70603
29033.8946
29034.76911
29035.34425
29035.62967
-0.04528905099
0.02399949704
0.0831514061
0.2157454948
0.3394971799
0.3933942174
0.3911564013
0.4269480076
27276.56434
27425.2772
27571.02433
27711.88517
27845.94919
27971.78506
28088.45722
28195.48926
28292.79342
28380.58575
28459.30162
28529.52029
28591.90284
28647.14416
28695.93804
28738.95328
28776.81865
28810.11444
28839.36884
28865.05753
28887.60552
28907.39018
28924.74503
28939.96378
28953.30434
28964.99269
28975.22649
28984.17835
28991.99877
28998.81877
29004.75219
29009.89772
29014.34063
29018.1543
29021.40154
29024.13566
29026.40143
29028.23589
29029.66896
29030.72398
29031.41811
29031.76262
-0.08318326731
0.05245543319
0.1391113259
0.2761921847
0.3633711946
0.3979758315
0.3893030006
0.4191533318
27276.5193
27415.70507
27552.47414
27685.30983
27812.60553
27933.09784
28045.89122
28150.44538
28246.53578
28334.19917
28413.67456
28485.34679
28549.69694
28607.26143
28658.6001
28704.27245
28744.82103
28780.76035
28812.57031
28840.69282
28865.53078
28887.44867
28906.77418
28923.80044
28938.78859
28951.97052
28963.5515
28973.71276
28982.61394
28990.39527
28997.17957
29003.07412
29008.1722
29012.55457
29016.29069
29019.43978
29022.05179
29024.16813
29025.82236
29027.04074
29027.84257
29028.24058
-0.1035219574
0.09879796399
0.2058528985
0.3265778188
0.3755602749
0.3903103672
0.3985287055
0.4147038848
27276.49768
27408.18944
27537.85715
27664.27287
27786.06357
27902.10799
28011.56308
28113.86423
28208.70446
28296.0002
28375.85055
28448.49549
28514.27702
28573.60501
28626.92906
28674.71609
28717.43342
28755.53642
28789.46006
28819.6135
28846.37697
28870.10043
28891.10348
28909.6761
28926.07999
28940.55023
28953.29714
28964.50819
28974.34992
28982.96973
28990.49766
28997.04793
29002.72044
29007.60207
29011.76784
29015.28198
29018.19879
29020.56345
29022.41262
29023.77503
29024.67186
29025.11706
-0.07714161325
0.1631731685
0.2718210519
0.361012687
0.3910816352
0.3898792652
0.4030546327
0.4116568855
27276.48302
27402.36047
27526.49216
27647.85978
27765.26665
27877.70626
27984.38784
28084.74314
28178.41701
28265.24627
28345.23179
28418.5077
28485.31088
28545.95293
28600.79555
28650.23004
28694.66081
28734.49256
28770.12079
28801.92496
28830.264
28855.47346
28877.86409
28897.72139
28915.30594
28930.85418
28944.57956
28956.67388
28967.30875
28976.63704
28984.79436
28991.90047
28998.06054
29003.3664
29007.89761
29011.72249
29014.89895
29017.47524
29019.49063
29020.9759
29021.95378
29022.43925
0.005832380647
0.2332532058
0.3200961075
0.3676783056
0.3803472764
0.3913846777
0.4037220101
0.4064666877
27276.47204
27397.95797
27517.89141
27635.4066
27749.43608
27859.06165
27963.53803
28062.3028
28154.97364
28241.33575
28321.32253
28394.99266
28462.50608
28524.10061
28580.0706
28630.74825
28676.48784
28717.65292
28754.6063
28787.70234
28817.28143
28843.66616
28867.15887
28888.0403
28906.5691
28922.98191
28937.49397
28950.29996
28961.57509
28971.47625
28980.14324
28987.70002
28994.25583
28999.90634
29004.7347
29008.81241
29012.20025
29014.94893
29017.09976
29018.68517
29019.72912
29020.24741
0.1407274513
0.3031210649
0.3504363819
0.3592760888
0.3588213308
0.3808519902
0.3998282447
0.3998496965
27276.4592
27394.79742
27511.70913
27626.43852
27738.00871
27845.5655
27948.39915
28045.95581
28137.83858
28223.80029
28303.72976
28377.63435
28445.62032
28507.87311
28564.6384
28616.20502
28662.88994
28705.02564
28742.94985
28776.99741
28807.494
28834.7517
28859.06578
28880.71272
28899.94912
28917.01128
28932.11535
28945.45784
28957.21635
28967.55057
28976.6033
28984.5015
28991.35737
28997.26942
29002.3234
29006.5932
29010.14171
29013.02145
29015.2753
29016.93689
29018.03111
29018.57439
0.3203526078
0.360901732
0.3608646368
0.3435111976
0.3485413855
0.3796448818
0.4067237734
0.4206330076