/*--------------------------------*- C++ -*----------------------------------*\
  =========                 |
  \\      /  F ield         | OpenFOAM: The Open Source CFD Toolbox
   \\    /   O peration     | Website:  https://openfoam.org
    \\  /    A nd           | Version:  6
     \\/     M anipulation  |
\*---------------------------------------------------------------------------*/
FoamFile
{
    version     2.0;
    format      ascii;
    class       surfaceScalarField;
    location    "0.13";
    object      phi;
}
// * * * * * * * * * * * * * * * * * * * * * * * * * * * * * * * * * * * * * //

dimensions      [0 3 -1 0 0 0 0];

internalField   nonuniform List<scalar> 
4900
(
-5.46161884e-08
-1.057064946e-07
7.381407943e-09
-6.199759637e-08
3.066434421e-08
-2.328293635e-08
3.497909832e-08
-4.314754149e-09
2.993118728e-08
5.047911068e-09
1.709145525e-08
1.283973206e-08
1.192299495e-09
1.589915578e-08
-9.250955037e-17
1.192299649e-09
-1.149824006e-20
4.092780872e-24
-1.139864763e-20
-9.959243199e-23
-1.120241544e-20
-1.962344058e-22
-1.091694026e-20
-2.854801588e-22
-1.055217427e-20
-3.647735771e-22
-1.012004518e-20
-4.321392075e-22
-9.633677766e-21
-4.863800276e-22
-9.106606222e-21
-5.2708663e-22
-8.552070415e-21
-5.545533363e-22
-7.98244841e-21
-5.696419443e-22
-7.408847226e-21
-5.736234958e-22
-6.840850605e-21
-5.680212642e-22
-6.286406702e-21
-5.544708334e-22
-5.751829714e-21
-5.346061549e-22
-5.241886391e-21
-5.099746738e-22
-4.759939429e-21
-4.819804419e-22
-4.308123387e-21
-4.518515904e-22
-3.887533596e-21
-4.206273464e-22
-3.49841352e-21
-3.891595736e-22
-3.140330656e-21
-3.581242349e-22
-2.812334921e-21
-3.280389114e-22
-2.513096475e-21
-2.992833556e-22
-2.241022179e-21
-2.721208637e-22
-1.994351372e-21
-2.467189603e-22
-1.771232578e-21
-2.231684548e-22
-1.569783304e-21
-2.015003649e-22
-1.388135233e-21
-1.817005127e-22
-1.224467138e-21
-1.637218093e-22
-1.077027667e-21
-1.474943759e-22
-9.441499585e-22
-1.329337233e-22
-8.242597622e-22
-1.199472403e-22
-7.158785014e-22
-1.08439252e-22
-6.176224693e-22
-9.831488854e-23
-5.281991178e-22
-8.948299111e-23
-4.46401211e-22
-8.185824753e-23
-3.710994418e-22
-7.536272891e-23
-3.012339675e-22
-6.992697104e-23
-2.35805189e-22
-6.549073021e-23
-1.73863963e-22
-6.200355099e-23
-1.145012009e-22
-5.942537861e-23
-5.683615042e-23
-5.772787724e-23
-5.689910563e-23
-1.077594856e-07
-1.515886164e-07
-5.247008404e-08
-1.17286998e-07
-1.376378591e-08
-6.198923451e-08
1.940564998e-09
-2.001910504e-08
4.980423426e-09
2.008052688e-09
2.669715949e-09
1.515043956e-08
-8.938734883e-10
1.946274512e-08
1.599875831e-17
2.984258444e-10
-1.159966627e-20
9.052747167e-25
-1.149525672e-20
-2.040064134e-22
-1.129164837e-20
-3.998520306e-22
-1.09962238e-20
-5.80918775e-22
-1.061953391e-20
-7.414820679e-22
-1.017428395e-20
-8.774122389e-22
-9.674385831e-21
-9.8630562e-22
-9.134077228e-21
-1.067427072e-21
-8.567165368e-21
-1.121501334e-21
-7.986437568e-21
-1.150410117e-21
-7.403253163e-21
-1.156852431e-21
-6.827308336e-21
-1.144014699e-21
-6.266549753e-21
-1.115282012e-21
-5.727205247e-21
-1.074007151e-21
-5.213898294e-21
-1.023341909e-21
-4.729815768e-21
-9.661269374e-22
-4.276903398e-21
-9.048315053e-22
-3.856069199e-21
-8.415325476e-22
-3.467380765e-21
-7.77922347e-22
-3.110247229e-21
-7.153353234e-22
-2.783580679e-21
-6.547860965e-22
-2.485934818e-21
-5.970128045e-22
-2.215620728e-21
-5.425213592e-22
-1.970801019e-21
-4.916277546e-22
-1.749564415e-21
-4.444966865e-22
-1.549983214e-21
-4.011755936e-22
-1.370156179e-21
-3.616238342e-22
-1.20823928e-21
-3.257371075e-22
-1.062466549e-21
-2.933674758e-22
-9.311629958e-22
-2.643394695e-22
-8.127512981e-22
-2.38462808e-22
-7.05753681e-22
-2.155422701e-22
-6.087901443e-22
-1.953852104e-22
-5.205739837e-22
-1.778071741e-22
-4.399053443e-22
-1.626359998e-22
-3.656633822e-22
-1.497147477e-22
-2.96797474e-22
-1.389037332e-22
-2.323178093e-22
-1.300819002e-22
-1.712856489e-22
-1.231477228e-22
-1.1280364e-22
-1.180197616e-22
-5.600733681e-23
-1.146367785e-22
-1.129561466e-22
-1.348291587e-07
-1.685436014e-07
-8.89687058e-08
-1.631474509e-07
-4.16022877e-08
-1.093556526e-07
-1.436334123e-08
-4.725805149e-08
-8.493059806e-09
-3.862228646e-09
-5.388179489e-09
1.204555937e-08
-1.034277295e-09
1.510884309e-08
8.253489038e-18
-7.358513862e-10
-1.180308807e-20
-3.624591598e-24
-1.169105688e-20
-3.160412296e-22
-1.147268648e-20
-6.182301587e-22
-1.115676646e-20
-8.968506513e-22
-1.075545207e-20
-1.142812265e-21
-1.028317365e-20
-1.349710356e-21
-9.755510899e-21
-1.513991915e-21
-9.188160889e-21
-1.634804432e-21
-8.596087636e-21
-1.713605691e-21
-7.992895806e-21
-1.753636744e-21
-7.390432348e-21
-1.759354317e-21
-6.798592407e-21
-1.735896629e-21
-6.225290647e-21
-1.688629244e-21
-5.676554204e-21
-1.622792466e-21
-5.156695667e-21
-1.543252633e-21
-4.66853072e-21
-1.454347292e-21
-4.213612902e-21
-1.359807856e-21
-3.792465671e-21
-1.262741333e-21
-3.404798816e-21
-1.165653676e-21
-3.049701694e-21
-1.070499729e-21
-2.725809918e-21
-9.787478538e-22
-2.431444954e-21
-8.914503336e-22
-2.164727948e-21
-8.093133969e-22
-1.92367019e-21
-7.327628922e-22
-1.70624312e-21
-6.620033615e-22
-1.510430935e-21
-5.970694886e-22
-1.334268713e-21
-5.378697442e-22
-1.175868772e-21
-4.842225916e-22
-1.033437593e-21
-4.358859267e-22
-9.052853591e-22
-3.925805757e-22
-7.898297978e-22
-3.540087163e-22
-6.855956998e-22
-3.198680616e-22
-5.912112478e-22
-2.898625746e-22
-5.054020253e-22
-2.637103996e-22
-4.269833943e-22
-2.411495966e-22
-3.548517628e-22
-2.219421799e-22
-2.879751336e-22
-2.058768703e-22
-2.253832249e-22
-1.927708964e-22
-1.661573816e-22
-1.824711056e-22
-1.094204437e-22
-1.748545637e-22
-5.432656311e-23
-1.698287179e-22
-1.673311335e-22
-1.417675105e-07
-1.617584164e-07
-1.162088717e-07
-1.887060898e-07
-6.92196362e-08
-1.563448881e-07
-2.593782854e-08
-9.053985916e-08
-8.679902251e-09
-2.112015494e-08
-5.523411548e-09
8.889068643e-09
-1.225119989e-10
9.707943551e-09
-1.568705018e-17
-8.583633641e-10
-1.211753142e-20
-5.018854695e-24
-1.199319231e-20
-4.403839093e-22
-1.175126155e-20
-8.601685117e-22
-1.140269606e-20
-1.24542779e-21
-1.096233239e-20
-1.583191473e-21
-1.044745093e-20
-1.864611195e-21
-9.87633069e-21
-2.085135332e-21
-9.266978335e-21
-2.244183712e-21
-8.636140954e-21
-2.344473698e-21
-7.998639053e-21
-2.391172915e-21
-7.367001473e-21
-2.391029746e-21
-6.751351211e-21
-2.35158825e-21
-6.159478192e-21
-2.280547058e-21
-5.597036052e-21
-2.185282755e-21
-5.067808979e-21
-2.072531122e-21
-4.574006817e-21
-1.948204048e-21
-4.116558908e-21
-1.817313439e-21
-3.695387788e-21
-1.68397311e-21
-3.309652212e-21
-1.551452787e-21
-2.957955081e-21
-1.422263166e-21
-2.63851593e-21
-1.298255971e-21
-2.349310148e-21
-1.180727631e-21
-2.088178467e-21
-1.070519025e-21
-1.852910834e-21
-9.681067891e-22
-1.641308791e-21
-8.736838638e-22
-1.451230283e-21
-7.872285305e-22
-1.280620351e-21
-7.085621635e-22
-1.127530712e-21
-6.373965467e-22
-9.901307532e-22
-5.733719072e-22
-8.66711989e-22
-5.160869412e-22
-7.556876634e-22
-4.651220977e-22
-6.55588804e-22
-4.200573053e-22
-5.650577634e-22
-3.804852023e-22
-4.828400327e-22
-3.460207938e-22
-4.077749215e-22
-3.163083216e-22
-3.387855395e-22
-2.910259997e-22
-2.748683941e-22
-2.698891514e-22
-2.150828196e-22
-2.526521786e-22
-1.58540377e-22
-2.391097015e-22
-1.043942858e-22
-2.290971274e-22
-5.182882224e-23
-2.224908457e-22
-2.192082671e-22
-1.305305501e-07
-1.367659954e-07
-1.295523173e-07
-1.896843226e-07
-9.528591624e-08
-1.906112892e-07
-4.583564575e-08
-1.399901296e-07
-9.315304262e-09
-5.764049641e-08
-2.215179061e-09
1.788943428e-09
-1.567973844e-10
7.649561854e-09
-2.888043537e-17
-1.015160743e-09
-1.255547755e-20
-6.109463323e-24
-1.241290316e-20
-5.82961858e-22
-1.213645603e-20
-1.136623225e-21
-1.174041551e-20
-1.641479939e-21
-1.124372935e-20
-2.079893159e-21
-1.066797215e-20
-2.440387749e-21
-1.003539263e-20
-2.717738e-21
-9.367294131e-21
-2.912309106e-21
-8.682873886e-21
-3.028924534e-21
-7.99853358e-21
-3.075547451e-21
-7.327598449e-21
-3.062002684e-21
-6.680346886e-21
-2.998881127e-21
-6.064247557e-21
-2.896691132e-21
-5.484313971e-21
-2.765264436e-21
-4.943506959e-21
-2.613389493e-21
-4.443136775e-21
-2.448628764e-21
-3.983234926e-21
-2.277272899e-21
-3.562880019e-21
-2.104388606e-21
-3.18047185e-21
-1.933924419e-21
-2.83395437e-21
-1.768846878e-21
-2.520991796e-21
-1.611287435e-21
-2.239103927e-21
-1.462686936e-21
-1.985767198e-21
-1.32392962e-21
-1.758487802e-21
-1.195462363e-21
-1.554852566e-21
-1.077397471e-21
-1.372562477e-21
-9.695990635e-22
-1.209452937e-21
-8.717540977e-22
-1.063504067e-21
-7.834296371e-22
-9.328436902e-22
-7.041182083e-22
-8.157450459e-22
-6.332730874e-22
-7.106208349e-22
-5.703352632e-22
-6.160147766e-22
-5.147536451e-22
-5.305915766e-22
-4.659998849e-22
-4.53125952e-22
-4.235789759e-22
-3.824911765e-22
-3.870366034e-22
-3.176474635e-22
-3.559640418e-22
-2.576303946e-22
-3.300012459e-22
-2.015395197e-22
-3.088386495e-22
-1.485271849e-22
-2.922180767e-22
-9.778759131e-23
-2.799330791e-22
-4.854603771e-23
-2.718289484e-22
-2.678026143e-22
-1.049593224e-07
-1.004189752e-07
-1.272478838e-07
-1.673957611e-07
-1.135961413e-07
-2.042630317e-07
-7.038439015e-08
-1.832018808e-07
-2.068808121e-08
-1.073368054e-07
8.966587962e-10
-1.979579659e-08
-4.761427501e-10
9.022363371e-09
-2.329001792e-17
-1.491303503e-09
-1.313507533e-20
-8.921978164e-24
-1.296646238e-20
-7.51578374e-22
-1.264122462e-20
-1.461868562e-21
-1.217877137e-20
-2.103944827e-21
-1.16041978e-20
-2.654482257e-21
-1.09453242e-20
-3.099280712e-21
-1.022998782e-20
-3.433097536e-21
-9.483949333e-21
-3.658374489e-21
-8.729545888e-21
-3.783358577e-21
-7.985041734e-21
-3.820085844e-21
-7.264529408e-21
-3.782552826e-21
-6.578206031e-21
-3.685245826e-21
-5.93286479e-21
-3.542077128e-21
-5.332476831e-21
-3.3657005e-21
-4.778777679e-21
-3.167140016e-21
-4.271806241e-21
-2.955654745e-21
-3.810370376e-21
-2.738766386e-21
-3.392430665e-21
-2.522388917e-21
-3.015404967e-21
-2.311013593e-21
-2.676402134e-21
-2.107915956e-21
-2.372395721e-21
-1.91536275e-21
-2.100348848e-21
-1.734805256e-21
-1.857300504e-21
-1.567051842e-21
-1.640422232e-21
-1.412416825e-21
-1.447052595e-21
-1.27084549e-21
-1.274715348e-21
-1.142016767e-21
-1.12112594e-21
-1.025425911e-21
-9.841899062e-22
-9.204499038e-22
-8.619957753e-22
-8.263982747e-22
-7.528044671e-22
-7.425519089e-22
-6.550365759e-22
-6.681921202e-22
-5.67258542e-22
-6.026219716e-22
-4.881683966e-22
-5.451815235e-22
-4.165815363e-22
-4.952584041e-22
-3.514168151e-22
-4.52294841e-22
-2.916831201e-22
-4.157920756e-22
-2.364665076e-22
-3.853128931e-22
-1.849179148e-22
-3.604828468e-22
-1.362414139e-22
-3.409906257e-22
-8.968294536e-23
-3.265879129e-22
-4.451944638e-23
-3.170890031e-22
-3.123703794e-22
-7.11016522e-08
-6.074565237e-08
-1.108709666e-07
-1.276264467e-07
-1.201441212e-07
-1.949898772e-07
-9.20300969e-08
-2.113159051e-07
-4.233621437e-08
-1.570306879e-07
-4.652225689e-09
-5.747978529e-08
-9.382821634e-10
5.308419812e-09
-5.332919436e-18
-2.429585676e-09
-1.388238371e-20
-1.566935181e-23
-1.367661582e-20
-9.573498402e-22
-1.328318437e-20
-1.855307593e-21
-1.272923781e-20
-2.657903027e-21
-1.204897002e-20
-3.334765585e-21
-1.127915318e-20
-3.869116917e-21
-1.045530594e-20
-4.256967933e-21
-9.608993541e-21
-4.504713801e-21
-8.766343085e-21
-4.626039643e-21
-7.947581105e-21
-4.638882075e-21
-7.167291938e-21
-4.562879821e-21
-6.435100579e-21
-4.417478522e-21
-5.756543268e-21
-4.220679209e-21
-5.133962634e-21
-3.988329255e-21
-4.567330013e-21
-3.733824023e-21
-4.054947451e-21
-3.468091868e-21
-3.594015364e-21
-3.199756112e-21
-3.181071721e-21
-2.935393179e-21
-2.812318667e-21
-2.679830141e-21
-2.483856187e-21
-2.436444698e-21
-2.191842272e-21
-2.207445588e-21
-1.932597009e-21
-1.994121986e-21
-1.702665216e-21
-1.797057532e-21
-1.498849295e-21
-1.616308957e-21
-1.318221351e-21
-1.451551838e-21
-1.158121379e-21
-1.302197215e-21
-1.016146482e-21
-1.167483235e-21
-8.90134683e-22
-1.046545958e-21
-7.781458175e-22
-9.384730975e-22
-6.784411949e-22
-8.423440668e-22
-5.894631285e-22
-7.572591744e-22
-5.098150329e-22
-6.823603816e-22
-4.382424891e-22
-6.168455824e-22
-3.7361548e-22
-5.599780028e-22
-3.14911864e-22
-5.110919948e-22
-2.612020657e-22
-4.695962336e-22
-2.116349051e-22
-4.349751092e-22
-1.654244523e-22
-4.067889245e-22
-1.218377728e-22
-3.84673373e-22
-8.018341809e-23
-3.68338652e-22
-3.980051448e-23
-3.575684813e-22
-3.52219223e-22
-3.606162484e-08
-2.618637868e-08
-8.399445389e-08
-7.969361765e-08
-1.143017672e-07
-1.646825639e-07
-1.06122897e-07
-2.194947753e-07
-6.314964417e-08
-2.000039407e-07
-1.507150635e-08
-1.055579231e-07
-9.980739703e-10
-8.765012601e-09
9.812029661e-18
-3.427659638e-09
-1.483291194e-20
-2.444950383e-23
-1.45743719e-20
-1.215893454e-21
-1.408562804e-20
-2.344059033e-21
-1.340601647e-20
-3.337526246e-21
-1.258330134e-20
-4.157496256e-21
-1.166703608e-20
-4.785401551e-21
-1.070312014e-20
-5.220907045e-21
-9.73040898e-21
-5.477451883e-21
-8.779283641e-21
-5.577195602e-21
-7.871676027e-21
-5.546523952e-21
-7.021980608e-21
-5.412613082e-21
-6.238380479e-21
-5.201120002e-21
-5.524260278e-21
-4.934844194e-21
-4.879512037e-21
-4.633125633e-21
-4.301640973e-21
-4.31174649e-21
-3.786644579e-21
-3.983142841e-21
-3.32967657e-21
-3.656781779e-21
-2.925525575e-21
-3.339604812e-21
-2.568944272e-21
-3.036474958e-21
-2.254863527e-21
-2.750591727e-21
-1.978521593e-21
-2.483856464e-21
-1.735532842e-21
-2.237182225e-21
-1.521915022e-21
-2.010749271e-21
-1.334089234e-21
-1.804210978e-21
-1.168862921e-21
-1.616856579e-21
-1.023403082e-21
-1.447737553e-21
-8.952046453e-22
-1.295764122e-21
-7.820572215e-22
-1.159777659e-21
-6.820122897e-22
-1.03860401e-21
-5.933520135e-22
-9.310919012e-22
-5.145603262e-22
-8.361398724e-22
-4.442965507e-22
-7.527144946e-22
-3.81371582e-22
-6.798620891e-22
-3.24726516e-22
-6.167156812e-22
-2.734135253e-22
-5.62498546e-22
-2.265787432e-22
-5.16525398e-22
-1.834468992e-22
-4.782020307e-22
-1.433074521e-22
-4.470240182e-22
-1.055019706e-22
-4.225749438e-22
-6.941252929e-23
-4.045244989e-22
-3.445089795e-23
-3.926267081e-22
-3.867184608e-22
-6.850495105e-09
-5.312581828e-09
-5.143720141e-08
-3.510691134e-08
-9.68483062e-08
-1.192714591e-07
-1.103436214e-07
-2.059994601e-07
-8.052359962e-08
-2.298239625e-07
-2.825881276e-08
-1.5782271e-07
-5.006728213e-11
-3.69737581e-08
7.643625316e-18
-3.477726893e-09
-1.603808468e-20
-3.171867053e-23
-1.570223307e-20
-1.551748634e-21
-1.50789013e-20
-2.967398391e-21
-1.422589361e-20
-4.190545587e-21
-1.321120485e-20
-5.172200569e-21
-1.210260863e-20
-5.894017154e-21
-1.095977564e-20
-6.363763215e-21
-9.83028451e-21
-6.606969939e-21
-8.748747783e-21
-6.65876296e-21
-7.737893381e-21
-6.557412629e-21
-6.810601487e-21
-6.339942831e-21
-5.972201349e-21
-6.039561504e-21
-5.222620617e-21
-5.684469726e-21
-4.558195072e-21
-5.297599331e-21
-3.973084663e-21
-4.89690832e-21
-3.460318229e-21
-4.49596387e-21
-3.012523924e-21
-4.10463376e-21
-2.622411726e-21
-3.729777667e-21
-2.283070554e-21
-3.375879664e-21
-1.988132835e-21
-3.04559575e-21
-1.73184826e-21
-2.740210002e-21
-1.50909816e-21
-2.460003835e-21
-1.315373179e-21
-2.204548193e-21
-1.146730096e-21
-1.972930315e-21
-9.997384491e-22
-1.763926674e-21
-8.714238601e-22
-1.576132664e-21
-7.592123136e-22
-1.408058141e-21
-6.608778178e-22
-1.258196455e-21
-5.744946757e-22
-1.125073155e-21
-4.98394819e-22
-1.007279339e-21
-4.311301811e-22
-9.034935442e-22
-3.714398113e-22
-8.124952249e-22
-3.182212913e-22
-7.331721702e-22
-2.70505955e-22
-6.645236529e-22
-2.274374069e-22
-6.056606773e-22
-1.882528542e-22
-5.558043555e-22
-1.522668051e-22
-5.142831797e-22
-1.188567264e-22
-4.805297656e-22
-8.745029601e-23
-4.540774853e-22
-5.751392307e-23
-4.34557299e-22
-2.854224425e-23
-4.216950038e-22
-4.153090558e-22
9.677801146e-09
1.08285313e-09
-1.964189173e-08
-5.78721845e-09
-7.044318505e-08
-6.847016573e-08
-1.039474535e-07
-1.724951917e-07
-9.28291794e-08
-2.409422366e-07
-4.36332201e-08
-2.070186693e-07
-5.958335656e-10
-8.001114462e-08
-1.640533412e-17
-4.073560405e-09
-1.75757017e-20
-1.357240889e-22
-1.711747728e-20
-2.009976626e-21
-1.630180371e-20
-3.783079554e-21
-1.520745676e-20
-5.284904184e-21
-1.393306004e-20
-6.446612842e-21
-1.25724821e-20
-7.254614485e-21
-1.120315778e-20
-7.733110721e-21
-9.882268729e-21
-7.927885933e-21
-8.647582466e-21
-7.893479865e-21
-7.520589557e-21
-7.684439824e-21
-6.510361131e-21
-7.350209125e-21
-5.617224215e-21
-6.932739798e-21
-4.83584001e-21
-6.465898745e-21
-4.157571902e-21
-5.975915608e-21
-3.572189561e-21
-5.482342097e-21
-3.069022428e-21
-4.999185616e-21
-2.637690262e-21
-4.536023621e-21
-2.268527012e-21
-4.099001593e-21
-1.95279307e-21
-3.691677158e-21
-1.682748501e-21
-3.315706642e-21
-1.451639954e-21
-2.971387533e-21
-1.25363796e-21
-2.65807736e-21
-1.083749187e-21
-2.374510928e-21
-9.377194362e-22
-2.119036341e-21
-8.119369913e-22
-1.889787589e-21
-7.033418068e-22
-1.684808392e-21
-6.093432575e-22
-1.502139185e-21
-5.277474755e-22
-1.339876559e-21
-4.566942543e-22
-1.196212402e-21
-3.946029227e-22
-1.069458275e-21
-3.401263019e-22
-9.580592217e-22
-2.92111754e-22
-8.606001562e-22
-2.495683298e-22
-7.758071784e-22
-2.116390857e-22
-7.025455552e-22
-1.77577728e-22
-6.39815641e-22
-1.467288419e-22
-5.867476689e-22
-1.185110582e-22
-5.425960857e-22
-9.240260129e-23
-5.067339133e-22
-6.792873888e-23
-4.786474808e-22
-4.465072027e-23
-4.579317665e-22
-2.215584434e-23
-4.442865181e-22
-4.375132616e-22
1.714651957e-08
1.712053171e-09
4.976732494e-09
6.382568673e-09
-3.933190796e-08
-2.416152525e-08
-8.794485311e-08
-1.238822465e-07
-9.901898463e-08
-2.298681051e-07
-6.03624311e-08
-2.456752228e-07
-6.3124737e-09
-1.34061102e-07
-4.490629873e-17
-1.0386034e-08
-1.947620466e-20
-1.368987802e-22
-1.888980702e-20
-2.596377837e-21
-1.780328363e-20
-4.869610538e-21
-1.636909703e-20
-6.719102445e-21
-1.474118224e-20
-8.074543181e-21
-1.305120687e-20
-8.94460925e-21
-1.139820541e-20
-9.386135385e-21
-9.848135207e-21
-9.477983082e-21
-8.438789528e-21
-9.302856197e-21
-7.186568561e-21
-8.936695089e-21
-6.093061117e-21
-8.443754448e-21
-5.150514311e-21
-7.875327995e-21
-4.345954642e-21
-7.270503242e-21
-3.664068443e-21
-6.65784999e-21
-3.089080985e-21
-6.057381006e-21
-2.605891176e-21
-5.482430055e-21
-2.200686037e-21
-4.941286472e-21
-1.861210871e-21
-4.438537452e-21
-1.576824053e-21
-3.976127549e-21
-1.338426188e-21
-3.554170849e-21
-1.138323463e-21
-3.171559261e-21
-9.700632742e-22
-2.826409099e-21
-8.282652763e-22
-2.516382908e-21
-7.084609067e-22
-2.238917008e-21
-6.069479999e-22
-1.991378988e-21
-5.206630857e-22
-1.771173871e-21
-4.470715934e-22
-1.575813194e-21
-3.840748781e-22
-1.402957619e-21
-3.299323543e-22
-1.250440974e-21
-2.831967956e-22
-1.11628146e-21
-2.426608681e-22
-9.986842285e-22
-2.073131035e-22
-8.960383268e-22
-1.763017092e-22
-8.069101792e-22
-1.489048233e-22
-7.300351216e-22
-1.245060288e-22
-6.643080639e-22
-1.025741243e-22
-6.08774023e-22
-8.264631785e-23
-5.626190366e-22
-6.431414392e-23
-5.251618001e-22
-4.721152353e-23
-4.95846256e-22
-3.100447964e-23
-4.742352808e-22
-1.53820943e-23
-4.600055633e-22
-4.52943728e-22
2.107511341e-08
1.680433137e-09
1.918244174e-08
8.275240414e-09
-8.924469306e-09
3.945385818e-09
-6.450073212e-08
-6.830598374e-08
-9.869445325e-08
-1.956743839e-07
-7.74968802e-08
-2.668727959e-07
-1.871918939e-08
-1.928387927e-07
-4.198572913e-17
-2.910522321e-08
-2.199322619e-20
-1.013751705e-22
-2.116215211e-20
-3.427455485e-21
-1.965242323e-20
-6.379347019e-21
-1.772458031e-20
-8.646957027e-21
-1.561153173e-20
-1.018760731e-20
-1.349312675e-20
-1.106303363e-20
-1.149046626e-20
-1.138881909e-20
-9.673387817e-21
-1.129508848e-20
-8.072949595e-21
-1.090332508e-20
-6.693884358e-21
-1.031579463e-20
-5.524830107e-21
-9.612846591e-21
-4.545832431e-21
-8.854367075e-21
-3.733401484e-21
-8.082979031e-21
-3.063666159e-21
-7.327633513e-21
-2.514171508e-21
-6.606927124e-21
-2.064770552e-21
-5.931885657e-21
-1.69794676e-21
-5.308167992e-21
-1.398801555e-21
-4.737743368e-21
-1.154861825e-21
-4.220130868e-21
-9.558051926e-22
-3.753293842e-21
-7.931616226e-22
-3.334271853e-21
-6.60024271e-22
-2.959618021e-21
-5.507862196e-22
-2.625694962e-21
-4.609099159e-22
-2.328869629e-21
-3.867304451e-22
-2.065636971e-21
-3.252907145e-22
-1.832694188e-21
-2.742051899e-22
-1.626981257e-21
-2.315483257e-22
-1.445698849e-21
-1.957638681e-22
-1.286311501e-21
-1.655915107e-22
-1.146541466e-21
-1.400077997e-22
-1.024357041e-21
-1.181786336e-22
-9.179579208e-22
-9.942112695e-23
-8.257593143e-22
-8.317299139e-23
-7.463759597e-22
-6.896791867e-23
-6.786067868e-22
-5.641573177e-23
-6.214206813e-22
-4.518630144e-23
-5.739436329e-22
-3.49964145e-23
-5.354474213e-22
-2.559893206e-23
-5.053399146e-22
-1.677369532e-23
-4.831570093e-22
-8.319728937e-24
-4.685562106e-22
-4.613118394e-22
2.518742449e-08
2.229799474e-09
2.565885356e-08
7.803811394e-09
1.460395661e-08
1.500028278e-08
-3.572746551e-08
-1.797456163e-08
-9.055144238e-08
-1.408504071e-07
-9.335489497e-08
-2.640693432e-07
-3.737051567e-08
-2.488231719e-07
5.563312398e-18
-6.647573869e-08
-2.545508134e-20
-4.747083776e-22
-2.41133376e-20
-4.769202797e-21
-2.191981962e-20
-8.572872597e-21
-1.926553788e-20
-1.130125043e-20
-1.648753481e-20
-1.296562595e-20
-1.381956208e-20
-1.373102576e-20
-1.139734266e-20
-1.381106172e-20
-9.282135571e-21
-1.341032254e-20
-7.485820853e-21
-1.269967047e-20
-5.991235771e-21
-1.181041404e-20
-4.76656376e-21
-1.08375565e-20
-3.774589201e-21
-9.84638305e-21
-2.978149005e-21
-8.879464081e-21
-2.343014947e-21
-7.962815782e-21
-1.839158375e-21
-7.110835177e-21
-1.441062765e-21
-6.330035927e-21
-1.127519756e-21
-5.621768746e-21
-8.811788902e-22
-4.984144961e-21
-6.880100124e-22
-4.413363352e-21
-5.367659801e-22
-3.904604253e-21
-4.184896125e-22
-3.452617261e-21
-3.260830532e-22
-3.052096169e-21
-2.539433667e-22
-2.69790867e-21
-1.976607483e-22
-2.385228583e-21
-1.537723661e-22
-2.109603885e-21
-1.19563789e-22
-1.866983372e-21
-9.291010765e-23
-1.653717496e-21
-7.214959042e-23
-1.466543753e-21
-5.59836759e-23
-1.302563506e-21
-4.339808555e-23
-1.159214725e-21
-3.360075717e-23
-1.034243491e-21
-2.59731017e-23
-9.256760252e-22
-2.003176786e-23
-8.317922976e-22
-1.53986636e-23
-7.511017877e-22
-1.177744363e-23
-6.823216781e-22
-8.935042764e-24
-6.243575746e-22
-6.687129514e-24
-5.762867332e-22
-4.886587546e-24
-5.373437184e-22
-3.414314516e-24
-5.069083845e-22
-2.171768316e-24
-4.844960678e-22
-1.074797569e-24
-4.697498827e-22
-4.624350292e-22
3.043292618e-08
2.732179698e-09
3.032617091e-08
7.910566683e-09
2.904398894e-08
1.628246476e-08
-4.117120106e-09
1.518654742e-08
-7.16988637e-08
-7.326866349e-08
-1.03769081e-07
-2.319991257e-07
-5.978016732e-08
-2.928120855e-07
4.038653093e-17
-1.262559059e-07
-3.00355676e-20
-9.38569269e-22
-2.79159117e-20
-6.888862261e-21
-2.464825084e-20
-1.184054107e-20
-2.093073561e-20
-1.501877732e-20
-1.725400093e-20
-1.664237619e-20
-1.390062012e-20
-1.708442599e-20
-1.099745746e-20
-1.671424759e-20
-8.572139997e-21
-1.583566698e-20
-6.597039515e-21
-1.467480163e-20
-5.018704787e-21
-1.338878309e-20
-3.77560328e-21
-1.208069592e-20
-2.807800419e-21
-1.081422734e-20
-2.061572777e-21
-9.625736588e-21
-1.491066977e-21
-8.533369806e-21
-1.058365928e-21
-7.543587721e-21
-7.327861777e-22
-6.655670353e-21
-4.898769924e-22
-5.86473569e-21
-3.103732037e-22
-5.163709492e-21
-1.792246768e-22
-4.544575502e-21
-8.4752468e-23
-3.999142857e-21
-1.794286771e-23
-3.519495919e-21
2.812857053e-23
-3.098239214e-21
5.87589744e-23
-2.728613113e-21
7.798420232e-23
-2.404530166e-21
8.886639149e-23
-2.120564625e-21
9.371839639e-23
-1.871916002e-21
9.427812658e-23
-1.654359804e-21
9.184346529e-23
-1.464193498e-21
8.737637305e-23
-1.298182524e-21
8.158301614e-23
-1.153509057e-21
7.497530769e-23
-1.027724924e-21
6.791807758e-23
-9.18709264e-22
6.066515543e-23
-8.246310451e-22
5.338691732e-23
-7.439162933e-22
4.619127312e-23
-6.752197253e-22
3.913962535e-23
-6.174004392e-22
3.225898564e-23
-5.695013004e-22
2.555116942e-23
-5.307316772e-22
1.899978643e-23
-5.004532181e-22
1.257559066e-23
-4.781684039e-22
6.240638212e-24
-4.635116511e-22
-4.562427925e-22
3.613264528e-08
2.909050284e-09
3.533189194e-08
8.711320021e-09
3.650276643e-08
1.511159028e-08
2.461060375e-08
2.707871011e-08
-3.922267956e-08
-9.435380105e-09
-1.016747955e-07
-1.695470096e-07
-8.109946854e-08
-3.133874125e-07
3.245152628e-17
-2.073553746e-07
-3.651949924e-20
-1.939864987e-21
-3.286701147e-20
-1.054135361e-20
-2.782757447e-20
-1.687998567e-20
-2.255619534e-20
-2.029016812e-20
-1.769789531e-20
-2.150069179e-20
-1.35319602e-20
-2.125038051e-20
-1.012000744e-20
-2.012622356e-20
-7.412060544e-21
-1.854364086e-20
-5.311536686e-21
-1.677535618e-20
-3.710936313e-21
-1.49894178e-20
-2.509316698e-21
-1.328235346e-20
-1.619400556e-21
-1.170418492e-20
-9.692384131e-22
-1.027594361e-20
-5.01281373e-22
-9.001375082e-21
-1.704242081e-22
-7.874496394e-21
5.818381629e-23
-6.884333066e-21
2.11189258e-22
-6.017798904e-21
3.08801721e-22
-5.261382712e-21
3.662475311e-22
-4.602084949e-21
3.949314378e-22
-4.027893175e-21
4.033476278e-22
-3.527981182e-21
3.977851027e-22
-3.092748311e-21
3.828690454e-22
-2.713771112e-21
3.619737429e-22
-2.383711236e-21
3.375361339e-22
-2.096205584e-21
3.112931049e-22
-1.845753616e-21
2.844606037e-22
-1.627609898e-21
2.578685272e-22
-1.437685846e-21
2.320620793e-22
-1.272462204e-21
2.073777518e-22
-1.128912437e-21
1.840001224e-22
-1.004436456e-21
1.620041656e-22
-8.96803795e-22
1.413866329e-22
-8.041052007e-22
1.220891893e-22
-7.247116122e-22
1.040153444e-22
-6.572395905e-22
8.70427169e-23
-6.005223429e-22
7.103180031e-23
-5.535856095e-22
5.583211581e-23
-5.156277863e-22
4.128642839e-23
-4.860037659e-22
2.723354417e-23
-4.6421207e-22
1.351009195e-23
-4.498849381e-22
-4.427811105e-22
4.214392851e-08
2.900472386e-09
4.184201991e-08
9.013228616e-09
4.242245307e-08
1.453115713e-08
4.481819947e-08
2.468296374e-08
5.198926505e-09
3.018389296e-08
-7.984187843e-08
-8.450620459e-08
-9.491850545e-08
-2.983107854e-07
-1.887867033e-17
-3.022738803e-07
-4.601198856e-20
-4.806556206e-21
-3.920746349e-20
-1.734588226e-20
-3.124138884e-20
-2.484606792e-20
-2.377040802e-20
-2.776116061e-20
-1.74505178e-20
-2.782059759e-20
-1.240988068e-20
-2.629103705e-20
-8.538789088e-21
-2.399733838e-20
-5.644616816e-21
-2.143784012e-20
-3.526081521e-21
-1.889392217e-20
-2.004122498e-21
-1.651141117e-20
-9.312536059e-22
-1.435526028e-20
-1.911781717e-22
-1.24443018e-20
3.053598943e-22
-1.077252656e-20
6.256520997e-22
-9.321715534e-21
8.198044926e-22
-8.068700306e-21
9.247854953e-22
-6.989368769e-21
9.676704223e-22
-6.060741616e-21
9.681595287e-22
-5.261932588e-21
9.40493425e-22
-4.574482496e-21
8.948914256e-22
-3.9823576e-21
8.3862261e-22
-3.471781454e-21
7.767989892e-22
-3.030996328e-21
7.129607337e-22
-2.650006928e-21
6.49506895e-22
-2.320333785e-21
5.880118269e-22
-2.0347891e-21
5.294572641e-22
-1.787279713e-21
4.744022512e-22
-1.572637497e-21
4.231073001e-22
-1.386475336e-21
3.756248461e-22
-1.225065896e-21
3.318648846e-22
-1.0852402e-21
2.916423284e-22
-9.643030772e-22
2.547109045e-22
-8.59962876e-22
2.20787138e-22
-7.702731399e-22
1.895670445e-22
-6.935842985e-22
1.607374629e-22
-6.285037363e-22
1.33983458e-22
-5.738628864e-22
1.089928487e-22
-5.28690243e-22
8.54586434e-23
-4.921893918e-22
6.307996287e-23
-4.637213376e-22
4.156188231e-23
-4.427905568e-22
2.061451687e-23
-4.290343287e-22
-4.222150112e-22
4.815216931e-08
2.888610277e-09
4.841060951e-08
8.754788418e-09
4.80138105e-08
1.492795615e-08
5.225279797e-08
2.044397631e-08
4.339941051e-08
3.903728049e-08
-3.676757152e-08
-4.339222561e-09
-9.518576392e-08
-2.398925929e-07
-5.027987575e-17
-3.974596444e-07
-5.99020036e-20
-1.426565628e-20
-4.6717164e-20
-3.053072544e-20
-3.416511751e-20
-3.739812202e-20
-2.383617735e-20
-3.809011246e-20
-1.592508371e-20
-3.573170681e-20
-1.011867609e-20
-3.209746409e-20
-5.980699604e-21
-2.813533809e-20
-3.101429315e-21
-2.431713739e-20
-1.143896157e-21
-2.085148602e-20
1.519336726e-22
-1.780727535e-20
9.797345786e-22
-1.518309913e-20
1.480687948e-21
-1.294529663e-20
1.756286633e-21
-1.104817014e-20
1.878787809e-21
-9.444264966e-21
1.899250877e-21
-8.089214904e-21
1.853517049e-21
-6.943689651e-21
1.766571728e-21
-5.973854092e-21
1.655689778e-21
-5.15111142e-21
1.532687196e-21
-4.451543578e-21
1.405526356e-21
-3.855263196e-21
1.279457709e-21
-3.345781908e-21
1.157830784e-21
-2.909441054e-21
1.042669814e-21
-2.534920043e-21
9.350820442e-22
-2.212822417e-21
8.355470535e-22
-1.935332708e-21
7.441214143e-22
-1.695934748e-21
6.605830488e-22
-1.489181759e-21
5.84532584e-22
-1.310509327e-21
5.154640171e-22
-1.156083489e-21
4.528134647e-22
-1.022677387e-21
3.959922613e-22
-9.075710669e-22
3.44408888e-22
-8.08470023e-22
2.97482942e-22
-7.23438915e-22
2.546534491e-22
-6.508476011e-22
2.153831699e-22
-5.893272001e-22
1.791600832e-22
-5.377343637e-22
1.454968947e-22
-4.951223129e-22
1.13929175e-22
-4.607174983e-22
8.401255713e-23
-4.339009873e-22
5.531929852e-23
-4.141938808e-22
2.743442224e-23
-4.012462236e-22
-3.948290133e-22
5.40738771e-08
2.813648511e-09
5.461910087e-08
8.209564659e-09
5.503927412e-08
1.450778292e-08
5.709023235e-08
1.839301813e-08
6.549065153e-08
3.063686134e-08
1.88003688e-08
4.235106012e-08
-7.817540939e-08
-1.429168146e-07
-3.749306638e-17
-4.756350538e-07
-7.805416152e-20
-4.194418773e-20
-5.361016698e-20
-5.497472358e-20
-3.487274536e-20
-5.613555123e-20
-2.148665634e-20
-5.147621316e-20
-1.229558907e-20
-4.492278966e-20
-6.158914336e-21
-3.823415825e-20
-2.163545125e-21
-3.213073054e-20
3.638757999e-22
-2.684458531e-20
1.90032052e-21
-2.238796145e-20
2.776277618e-21
-1.868326681e-20
3.217765247e-21
-1.56246247e-20
3.378051526e-21
-1.310562437e-20
3.360413542e-21
-1.103057706e-20
3.234034471e-21
-9.317934159e-21
3.044945279e-21
-7.900177251e-21
2.82349558e-21
-6.722294673e-21
2.589433983e-21
-5.739850302e-21
2.355357054e-21
-4.917095283e-21
2.129050019e-21
-4.225300217e-21
1.915075936e-21
-3.641355561e-21
1.715855167e-21
-3.146630251e-21
1.532398777e-21
-2.726056326e-21
1.364806518e-21
-2.367401882e-21
1.212604334e-21
-2.060696647e-21