/*--------------------------------*- C++ -*----------------------------------*\
  =========                 |
  \\      /  F ield         | OpenFOAM: The Open Source CFD Toolbox
   \\    /   O peration     | Website:  https://openfoam.org
    \\  /    A nd           | Version:  6
     \\/     M anipulation  |
\*---------------------------------------------------------------------------*/
FoamFile
{
    version     2.0;
    format      ascii;
    class       volScalarField;
    location    "0.13";
    object      pVap;
}
// * * * * * * * * * * * * * * * * * * * * * * * * * * * * * * * * * * * * * //

dimensions      [1 -1 -2 0 0 0 0];

internalField   nonuniform List<scalar> 
2500
(
55294.21866
55293.95888
55293.6046
55293.30891
55293.07738
55292.89467
55292.73951
55292.62951
1.075904067
1.075258582
1.074853107
1.074602307
1.074451079
1.074362423
1.074311891
1.074283851
1.074268679
1.074260662
1.07425652
1.07425443
1.074253399
1.074252904
1.074252673
1.074252568
1.074252522
1.074252502
1.074252494
1.074252491
1.07425249
1.074252489
1.074252489
1.074252489
1.074252489
1.074252489
1.074252489
1.074252489
1.074252489
1.074252489
1.074252489
1.074252489
1.074252489
1.074252489
1.074252489
1.074252489
1.074252489
1.074252489
1.074252489
1.074252489
1.074252489
1.074252489
55295.76072
55295.4864
55295.00946
55294.43434
55293.87192
55293.40115
55292.99171
55292.62737
1.07920966
1.077326331
1.076111362
1.075348909
1.074883571
1.074607206
1.074447321
1.074357104
1.074307399
1.074280641
1.07426657
1.074259348
1.074255737
1.074253982
1.074253154
1.074252775
1.074252608
1.074252537
1.074252508
1.074252496
1.074252491
1.07425249
1.074252489
1.074252489
1.074252489
1.074252489
1.074252489
1.074252489
1.074252489
1.074252489
1.074252489
1.074252489
1.074252489
1.074252489
1.074252489
1.074252489
1.074252489
1.074252489
1.074252489
1.074252489
1.074252489
1.074252489
55296.53149
55296.31559
55295.89097
55295.27446
55294.54673
55293.85956
55293.23537
55292.63072
1.082783886
1.079645183
1.077583674
1.076265092
1.075442355
1.074940865
1.074642012
1.074467865
1.074368687
1.074313552
1.074283684
1.074267953
1.074259915
1.074255939
1.074254038
1.074253161
1.07425277
1.074252603
1.074252533
1.074252506
1.074252495
1.074252491
1.07425249
1.074252489
1.074252489
1.074252489
1.074252489
1.074252489
1.074252489
1.074252489
1.074252489
1.074252489
1.074252489
1.074252489
1.074252489
1.074252489
1.074252489
1.074252489
1.074252489
1.074252489
1.074252489
1.074252489
55296.99584
55296.83302
55296.49027
55295.93738
55295.16508
55294.31417
55293.49049
55292.64438
1.087059596
1.082562092
1.079549002
1.077567583
1.076287798
1.075475956
1.074970873
1.074663451
1.074480955
1.074375632
1.074316714
1.074284851
1.074268226
1.074259868
1.074255825
1.074253942
1.074253099
1.074252736
1.074252586
1.074252525
1.074252502
1.074252494
1.07425249
1.074252489
1.074252489
1.074252489
1.074252489
1.074252489
1.074252489
1.074252489
1.074252489
1.074252489
1.074252489
1.074252489
1.074252489
1.074252489
1.074252489
1.074252489
1.074252489
1.074252489
1.074252489
1.074252489
55297.32698
55297.20872
55296.9399
55296.47081
55295.73926
55294.77357
55293.75652
55292.66677
1.092758767
1.086714856
1.082537321
1.079672327
1.077728313
1.076428712
1.075577463
1.075034275
1.074698314
1.074497712
1.074382411
1.074318735
1.074284984
1.074267822
1.07425945
1.074255531
1.074253769
1.074253008
1.074252692
1.074252565
1.074252517
1.074252499
1.074252492
1.07425249
1.074252489
1.074252489
1.074252489
1.074252489
1.074252489
1.074252489
1.074252489
1.074252489
1.074252489
1.074252489
1.074252489
1.074252489
1.074252489
1.074252489
1.074252489
1.074252489
1.074252489
1.074252489
55297.5917
55297.51325
55297.31023
55296.91853
55296.25498
55295.25108
55294.0378
55292.69246
1.101255846
1.093331665
1.087574993
1.083385041
1.080359682
1.07821511
1.076736661
1.075752624
1.075123399
1.074738014
1.074512275
1.074385888
1.074318243
1.074283616
1.074266649
1.074258684
1.074255097
1.074253547
1.074252903
1.074252645
1.074252546
1.074252509
1.074252496
1.074252491
1.07425249
1.074252489
1.074252489
1.074252489
1.074252489
1.074252489
1.074252489
1.074252489
1.074252489
1.074252489
1.074252489
1.074252489
1.074252489
1.074252489
1.074252489
1.074252489
1.074252489
1.074252489
55297.81879
55297.7773
55297.63763
55297.32021
55296.72326
55295.72775
55294.33325
55292.72691
1.115204872
1.104783666
1.096634234
1.090243962
1.085310995
1.081617518
1.078961671
1.077137973
1.075945346
1.075203227
1.074763748
1.074515871
1.074382566
1.074314127
1.074280537
1.074264758
1.074257652
1.074254582
1.074253306
1.074252797
1.074252601
1.074252528
1.074252502
1.074252493
1.07425249
1.074252489
1.074252489
1.074252489
1.074252489
1.074252489
1.074252489
1.074252489
1.074252489
1.074252489
1.074252489
1.074252489
1.074252489
1.074252489
1.074252489
1.074252489
1.074252489
1.074252489
55298.0251
55298.01603
55297.93949
55297.70218
55297.18454
55296.22475
55294.68919
55292.78345
1.139786962
1.125609138
1.113446804
1.103126365
1.09466933
1.088065657
1.083180558
1.079762715
1.077500304
1.076081651
1.075237593
1.074760265
1.074503244
1.074371246
1.074306485
1.074276083
1.074262407
1.074256504
1.074254056
1.074253079
1.074252703
1.074252564
1.074252514
1.074252497
1.074252492
1.07425249
1.074252489
1.074252489
1.074252489
1.074252489
1.074252489
1.074252489
1.074252489
1.074252489
1.074252489
1.074252489
1.074252489
1.074252489
1.074252489
1.074252489
1.074252489
1.074252489
55298.22676
55298.24003
55298.22266
55298.07228
55297.65162
55296.76262
55295.15012
55292.86674
1.184838428
1.164403335
1.144990079
1.127320951
1.11220276
1.100097539
1.091016384
1.084615268
1.080362644
1.077692233
1.076103252
1.07520528
1.074722326
1.074474658
1.074353342
1.074296487
1.074270955
1.074259953
1.074255397
1.074253582
1.074252886
1.074252628
1.074252536
1.074252504
1.074252494
1.07425249
1.074252489
1.074252489
1.074252489
1.074252489
1.074252489
1.074252489
1.074252489
1.074252489
1.074252489
1.074252489
1.074252489
1.074252489
1.074252489
1.074252489
1.074252489
1.074252489
55298.43998
55298.46133
55298.49063
55298.42922
55298.12088
55297.3358
55295.71452
55292.98378
1.269398303
1.237661047
1.204355673
1.172481354
1.144600386
1.122105283
1.105217268
1.093339529
1.085474106
1.080552058
1.07763298
1.075988435
1.07510649
1.074655416
1.074435012
1.074331959
1.074285781
1.074265922
1.074257715
1.074254451
1.0742532
1.074252738
1.074252573
1.074252517
1.074252498
1.074252492
1.07425249
1.074252489
1.074252489
1.074252489
1.074252489
1.074252489
1.074252489
1.074252489
1.074252489
1.074252489
1.074252489
1.074252489
1.074252489
1.074252489
1.074252489
1.074252489
55298.66929
55298.69423
55298.74836
55298.77037
55298.58649
55297.93615
55296.36981
55294.97427
1.432702652
1.378423456
1.316758441
1.256408275
1.203679459
1.161554379
1.130304901
1.108570993
1.094314581
1.085461493
1.080243387
1.077318323
1.07575617
1.07496003
1.074572221
1.074391392
1.074310562
1.074275878
1.074261572
1.074255894
1.074253722
1.074252921
1.074252635
1.074252537
1.074252504
1.074252494
1.07425249
1.074252489
1.074252489
1.074252489
1.074252489
1.074252489
1.074252489
1.074252489
1.074252489
1.074252489
1.074252489
1.074252489
1.074252489
1.074252489
1.074252489
1.074252489
55298.9135
55298.9391
55299.00517
55299.09553
55299.04534
55298.56264
55297.11816
55296.12723
1.76314127
1.657844224
1.53342826
1.413030328
1.310587188
1.231060892
1.173559974
1.134393673
1.109111957
1.093600236
1.084539224
1.079494373
1.076814336
1.075454278
1.074794123
1.074487237
1.074350424
1.074291856
1.074267751
1.074258201
1.074254554
1.074253211
1.074252733
1.074252569
1.074252514
1.074252497
1.074252491
1.074252489
1.074252489
1.074252489
1.074252489
1.074252489
1.074252489
1.074252489
1.074252489
1.074252489
1.074252489
1.074252489
1.074252489
1.074252489
1.074252489
1.074252489
55299.17374
55299.20093
55299.27722
55299.40767
55299.49646
55299.21892
55297.982
55294.28813
2.485326192
2.245813094
1.967366248
1.710933821
1.504491232
1.352169729
1.246575689
1.176955165
1.133080602
1.10661926
1.091348996
1.08292076
1.07847194
1.076225324
1.075139116
1.074635814
1.074412061
1.074316508
1.074277264
1.074261746
1.074255831
1.074253656
1.074252883
1.074252618
1.07425253
1.074252501
1.074252493
1.07425249
1.074252489
1.074252489
1.074252489
1.074252489
1.074252489
1.074252489
1.074252489
1.074252489
1.074252489
1.074252489
1.074252489
1.074252489
1.074252489
1.074252489
55299.44885
55299.47842
55299.55962
55299.72149
55299.93704
55299.90487
55298.98134
55295.31821
4.260207027
3.602400891
2.894933207
2.300183469
1.861938199
1.562693382
1.36783659
1.245305677
1.17066964
1.126704052
1.101736222
1.088105649
1.0809657
1.077380156
1.075653987
1.074856892
1.07450354
1.074353013
1.074291324
1.074266977
1.074257712
1.074254311
1.074253104
1.07425269
1.074252553
1.074252508
1.074252495
1.074252491
1.074252489
1.074252489
1.074252489
1.074252489
1.074252489
1.074252489
1.074252489
1.074252489
1.074252489
1.074252489
1.074252489
1.074252489
1.074252489
1.074252489
55299.73832
55299.77116
55299.86129
55300.04657
55300.35314
55300.60655
55300.10951
55296.82572
9.355916102
7.145989032
5.068508366
3.53831047
2.542166456
1.931567692
1.567157709
1.352560513
1.227789368
1.156574283
1.1169652
1.095634944
1.084563088
1.079038025
1.076390381
1.075172135
1.074633653
1.07440482
1.074311238
1.074274373
1.074260368
1.074255233
1.074253414
1.074252791
1.074252585
1.074252518
1.074252498
1.074252491
1.07425249
1.074252489
1.074252489
1.074252489
1.074252489
1.074252489
1.074252489
1.074252489
1.074252489
1.074252489
1.074252489
1.074252489
1.074252489
1.074252489
55300.04065
55300.07745
55300.18028
55300.38869
55300.7663
55301.28976
55301.32048
55298.81363
26.59022905
17.72932008
10.72444589
6.340668751
3.895151004
2.589074226
1.893282758
1.517467053
1.311951271
1.199373141
1.138397811
1.106109913
1.089529943
1.081314973
1.077397828
1.075602099
1.074810669
1.074475152
1.074338224
1.074284378
1.074263956
1.074256478
1.074253833
1.074252928
1.074252628
1.074252531
1.074252502
1.074252492
1.07425249
1.074252489
1.074252489
1.074252489
1.074252489
1.074252489
1.074252489
1.074252489
1.074252489
1.074252489
1.074252489
1.074252489
1.074252489
1.074252489
55300.35255
55300.39499
55300.51451
55300.75688
55301.19073
55301.8966
55302.53518
55301.14144
91.68195579
52.59692328
26.77402982
13.13858969
6.713185352
3.785921242
2.426047189
1.766236655
1.432172575
1.258383235
1.167299755
1.12004199
1.096078713
1.084299877
1.078713166
1.076161748
1.075040511
1.074566285
1.074373127
1.074297299
1.074268582
1.074258082
1.074254371
1.074253103
1.074252683
1.074252548
1.074252507
1.074252494
1.07425249
1.074252489
1.074252489
1.074252489
1.074252489
1.074252489
1.074252489
1.074252489
1.074252489
1.074252489
1.074252489
1.074252489
1.074252489
1.074252489
55300.66851
55300.71866
55300.85905
55301.14673
55301.65296
55302.50459
55303.65972
55303.52405
335.4468135
168.7470784
73.67521609
30.24546401
12.76456667
5.996835185
3.29281031
2.133801842
1.598326744
1.336486581
1.20454324
1.137706584
1.10430037
1.088023949
1.08034734
1.076854935
1.075324517
1.074678673
1.074416099
1.074313183
1.074274262
1.074260048
1.074255031
1.074253317
1.074252751
1.074252569
1.074252513
1.074252496
1.074252491
1.074252489
1.074252489
1.074252489
1.074252489
1.074252489
1.074252489
1.074252489
1.074252489
1.074252489
1.074252489
1.074252489
1.074252489
1.074252489
55300.98101
55301.04093
55301.20749
55301.55054
55302.15576
55303.1379
55304.61945
55305.68436
1122.211755
518.6601445
203.4307875
72.40548342
25.69929269
10.06128064
4.682094242
2.662169134
1.819385398
1.435281953
1.250213376
1.158971453
1.114089978
1.092428777
1.082271935
1.07766886
1.075657234
1.074810096
1.074466272
1.074331705
1.074280878
1.074262336
1.074255797
1.074253566
1.074252829
1.074252593
1.07425252
1.074252498
1.074252491
1.074252489
1.074252489
1.074252489
1.074252489
1.074252489
1.074252489
1.074252489
1.074252489
1.074252489
1.074252489
1.074252489
1.074252489
1.074252489
55301.28054
55301.35179
55301.54912
55301.95565
55302.6797
55303.82764
55305.51633
55307.45884
3096.164624
1386.330992
516.0414281
167.4811374
51.89557238
17.26003172
6.83182348
3.39144688
2.099871082
1.553833014
1.303165195
1.183133163
1.125083458
1.097341125
1.084409042
1.078570038
1.076024833
1.074955052
1.074521533
1.07435208
1.074288147
1.074264847
1.074256638
1.074253839
1.074252915
1.074252619
1.074252528
1.0742525
1.074252492
1.07425249
1.074252489
1.074252489
1.074252489
1.074252489
1.074252489
1.074252489
1.074252489
1.074252489
1.074252489
1.074252489
1.074252489
1.074252489
55301.55611
55301.63952
55301.87026
55302.34609
55303.19934
55304.55341
55306.44767
55308.80227
6791.421082
3068.185
1133.787061
352.1081066
99.55473884
29.04834245
9.950359707
4.338366792
2.434257206
1.687215925
1.360641748
1.208813918
1.136628558
1.102464338
1.086628587
1.079503432
1.076404836
1.075104675
1.074578504
1.074373063
1.074295627
1.074267429
1.074257501
1.074254119
1.074253003
1.074252646
1.074252536
1.074252502
1.074252493
1.07425249
1.074252489
1.074252489
1.074252489
1.074252489
1.074252489
1.074252489
1.074252489
1.074252489
1.074252489
1.074252489
1.074252489
1.074252489
55301.79608
55301.89155
55302.15515
55302.69874
55303.67071
55305.20505
55307.24577
55309.77324
12007.69295
5586.390792
2104.159096
647.3135417
173.6927696
46.10243755
14.03677712
5.462228049
2.800543974
1.825389504
1.418136154
1.233982065
1.147812875
1.107394987
1.088756471
1.080396094
1.076767639
1.075247342
1.074632768
1.074393032
1.07430274
1.074269883
1.074258322
1.074254385
1.074253087
1.074252672
1.074252543
1.074252505
1.074252493
1.07425249
1.074252489
1.074252489
1.074252489
1.074252489
1.074252489
1.074252489
1.074252489
1.074252489
1.074252489
1.074252489
1.074252489
1.074252489
55301.98914
55302.09568
55302.38922
55302.99444
55304.07132
55305.75239
55307.90815
55310.43529
17686.22251
8507.356296
3295.497785
1022.696291
267.8065336
66.82885778
18.65121723
6.632845824
3.15668084
1.953273937
1.469711887
1.256149298
1.157562601
1.111668485
1.090594623
1.081165625
1.07707996
1.075370029
1.074679394
1.074410177
1.074308843
1.074271987
1.074259025
1.074254613
1.074253158
1.074252694
1.07425255
1.074252506
1.074252494
1.07425249
1.074252489
1.074252489
1.074252489
1.074252489
1.074252489
1.074252489
1.074252489
1.074252489
1.074252489
1.074252489
1.074252489
1.074252489
55302.12507
55302.24054
55302.5584
55303.21432
55304.37854
55306.1719
55308.4257
55310.84654
22437.38048
11084.81627
4400.613861
1383.821321
359.2898944
86.53003363
22.82783255
7.631842758
3.445044969
2.05290514
1.508911141
1.27275371
1.164806314
1.114829222
1.091950648
1.081732426
1.07730976
1.07546023
1.074713654
1.074422769
1.074313323
1.074273531
1.074259541
1.07425478
1.074253211
1.07425271
1.074252554
1.074252508
1.074252494
1.07425249
1.074252489
1.074252489
1.074252489
1.074252489
1.074252489
1.074252489
1.074252489
1.074252489
1.074252489
1.074252489
1.074252489
1.074252489
55302.19556
55302.31627
55302.64848
55303.33496
55304.55386
55306.41478
55308.75227
55311.04597
25120.73304
12590.33794
5067.81686
1607.611626
416.609842
98.75771713
25.34991143
8.214075859
3.607683639
2.107735736
1.530143866
1.281663789
1.168673023
1.116511559
1.09267123
1.082033324
1.077431675
1.075508062
1.074731814
1.074429442
1.074315697
1.074274349
1.074259814
1.074254868
1.074253239
1.074252718
1.074252557
1.074252509
1.074252494
1.07425249
1.074252489
1.074252489
1.074252489
1.074252489
1.074252489
1.074252489
1.074252489
1.074252489
1.074252489
1.074252489
1.074252489
1.074252489
55302.19556
55302.31627
55302.64848
55303.33496
55304.55386
55306.41478
55308.75227
55311.04579
25120.73327
12590.33787
5067.816834
1607.611618
416.6098405
98.75771688
25.34991139
8.214075852
3.607683638
2.107735736
1.530143866
1.281663789
1.168673023
1.116511559
1.09267123
1.082033324
1.077431675
1.075508062
1.074731814
1.074429442
1.074315697
1.074274349
1.074259814
1.074254868
1.074253239
1.074252718
1.074252557
1.074252509
1.074252494
1.07425249
1.074252489
1.074252489
1.074252489
1.074252489
1.074252489
1.074252489
1.074252489
1.074252489
1.074252489
1.074252489
1.074252489
1.074252489
55302.12507
55302.24054
55302.5584
55303.21432
55304.37854
55306.1719
55308.4257
55310.84603
22437.38146
11084.81609
4400.613797
1383.821305
359.2898912
86.53003311
22.82783247
7.631842746
3.445044967
2.05290514
1.508911141
1.27275371
1.164806314
1.114829222
1.091950648
1.081732426
1.07730976
1.07546023
1.074713654
1.074422769
1.074313323
1.074273531
1.074259541
1.07425478
1.074253211
1.07425271
1.074252554
1.074252508
1.074252494
1.07425249
1.074252489
1.074252489
1.074252489
1.074252489
1.074252489
1.074252489
1.074252489
1.074252489
1.074252489
1.074252489
1.074252489
1.074252489
55301.98914
55302.09568
55302.38922
55302.99444
55304.07132
55305.75239
55307.90815
55310.43487
17686.22387
8507.356094
3295.497722
1022.696277
267.8065311
66.82885742
18.65121719
6.632845821
3.15668084
1.953273937
1.469711888
1.256149298
1.157562601
1.111668485
1.090594623
1.081165625
1.07707996
1.075370029
1.074679394
1.074410177
1.074308843
1.074271987
1.074259025
1.074254613
1.074253158
1.074252694
1.07425255
1.074252506
1.074252494
1.07425249
1.074252489
1.074252489
1.074252489
1.074252489
1.074252489
1.074252489
1.074252489
1.074252489
1.074252489
1.074252489
1.074252489
1.074252489
55301.79608
55301.89155
55302.15515
55302.69874
55303.67071
55305.20505
55307.24577
55309.7731
12007.69375
5586.390679
2104.159069
647.3135371
173.6927692
46.10243761
14.03677716
5.462228064
2.80054398
1.825389506
1.418136155
1.233982066
1.147812875
1.107394987
1.088756471
1.080396094
1.076767639
1.075247342
1.074632768
1.074393032
1.07430274
1.074269883
1.074258322
1.074254385
1.074253087
1.074252672
1.074252543
1.074252505
1.074252493
1.07425249
1.074252489
1.074252489
1.074252489
1.074252489
1.074252489
1.074252489
1.074252489
1.074252489
1.074252489
1.074252489
1.074252489
1.074252489
55301.55611
55301.63952
55301.87026
55302.34609
55303.19934
55304.55341
55306.44767
55308.80293
6791.420836
3068.185019
1133.787072
352.1081111
99.55474026
29.04834284
9.950359816
4.338366826
2.434257218
1.68721593
1.36064175
1.208813919
1.136628558
1.102464338
1.086628587
1.079503432
1.076404836
1.075104675
1.074578504
1.074373063
1.074295627
1.074267429
1.074257501
1.074254119
1.074253003
1.074252646
1.074252536
1.074252502
1.074252493
1.07425249
1.074252489
1.074252489
1.074252489
1.074252489
1.074252489
1.074252489
1.074252489
1.074252489
1.074252489
1.074252489
1.074252489
1.074252489
55301.28054
55301.35179
55301.54912
55301.95565
55302.6797
55303.82764
55305.51633
55307.45993
3096.163969
1386.331071
516.0414532
167.4811446
51.89557425
17.26003221
6.831823618
3.391446924
2.099871098
1.553833021
1.303165198
1.183133165
1.125083459
1.097341125
1.084409043
1.078570038
1.076024834
1.074955052
1.074521533
1.07435208
1.074288147
1.074264847
1.074256638
1.074253839
1.074252915
1.074252619
1.074252528
1.0742525
1.074252492
1.07425249
1.074252489
1.074252489
1.074252489
1.074252489
1.074252489
1.074252489
1.074252489
1.074252489
1.074252489
1.074252489
1.074252489
1.074252489
55300.98101
55301.04093
55301.20749
55301.55054
55302.15576
55303.1379
55304.61945
55305.685
1122.211616
518.6602005
203.4308054
72.40548861
25.69929413
10.06128105
4.68209437
2.662169179
1.819385416
1.43528196
1.250213379
1.158971454
1.114089979
1.092428777
1.082271936
1.07766886
1.075657234
1.074810096
1.074466272
1.074331705
1.074280878
1.074262336
1.074255797
1.074253566
1.074252829
1.074252593
1.07425252
1.074252498
1.074252491
1.074252489
1.074252489
1.074252489
1.074252489
1.074252489
1.074252489
1.074252489
1.074252489
1.074252489
1.074252489
1.074252489
1.074252489
1.074252489
55300.66851
55300.71866
55300.85905
55301.14673
55301.65296
55302.50459
55303.65972
55303.52502
335.4468452
168.7471015
73.67522441
30.24546672
12.76456753
5.996835467
3.292810411
2.133801881
1.598326761
1.336486589
1.204543244
1.137706585
1.104300371
1.08802395
1.080347341
1.076854935
1.075324517
1.074678673
1.074416099
1.074313183
1.074274262
1.074260048
1.074255031
1.074253317
1.074252751
1.074252569
1.074252513
1.074252496
1.074252491
1.074252489
1.074252489
1.074252489
1.074252489
1.074252489
1.074252489
1.074252489
1.074252489
1.074252489
1.074252489
1.074252489
1.074252489
1.074252489
55300.35255
55300.39499
55300.51451
55300.75688
55301.19073
55301.8966
55302.53518
55301.14141
91.68196954
52.59693087
26.77403301
13.1385909
6.713185805
3.785921416
2.42604726
1.766236686
1.432172589
1.258383242
1.167299758
1.120041991
1.096078714
1.084299877
1.078713166
1.076161749
1.075040511
1.074566285
1.074373127
1.074297299
1.074268582
1.074258082
1.074254371
1.074253103
1.074252683
1.074252548
1.074252507
1.074252494
1.07425249
1.074252489
1.074252489
1.074252489
1.074252489
1.074252489
1.074252489
1.074252489
1.074252489
1.074252489
1.074252489
1.074252489
1.074252489
1.074252489
55300.04065
55300.07745
55300.18028
55300.38869
55300.7663
55301.28975
55301.32048
55298.81317
26.59023291
17.72932242
10.72444704
6.34066927
3.895151232
2.589074328
1.893282805
1.517467075
1.311951282
1.199373146
1.138397814
1.106109914
1.089529943
1.081314973
1.077397828
1.075602099
1.074810669
1.074475152
1.074338224
1.074284378
1.074263956
1.074256478
1.074253833
1.074252928
1.074252628
1.074252531
1.074252502
1.074252492
1.07425249
1.074252489
1.074252489
1.074252489
1.074252489
1.074252489
1.074252489
1.074252489
1.074252489
1.074252489
1.074252489
1.074252489
1.074252489
1.074252489
55299.73833
55299.77116
55299.86129
55300.04657
55300.35314
55300.60655
55300.10951
55296.8262
9.355917289
7.145989787
5.068508796
3.538310696
2.54216657
1.931567749
1.567157739
1.352560528
1.227789376
1.156574286
1.116965202
1.095634944
1.084563088
1.079038025
1.076390381
1.075172135
1.074633653
1.07440482
1.074311238
1.074274373
1.074260368
1.074255233
1.074253414
1.074252791
1.074252585
1.074252518
1.074252498
1.074252491
1.07425249
1.074252489
1.074252489
1.074252489
1.074252489
1.074252489
1.074252489
1.074252489
1.074252489
1.074252489
1.074252489
1.074252489
1.074252489
1.074252489
55299.44885
55299.47842
55299.55963
55299.72149
55299.93704
55299.90487
55298.98134
55295.31898
4.260207467
3.602401166
2.894933382
2.300183571
1.861938257
1.562693414
1.367836607
1.245305686
1.170669646
1.126704054
1.101736223
1.08810565
1.0809657
1.077380156
1.075653987
1.074856892
1.07450354
1.074353013
1.074291324
1.074266977
1.074257712
1.074254311
1.074253104
1.07425269
1.074252553
1.074252508
1.074252495
1.074252491
1.074252489
1.074252489
1.074252489
1.074252489
1.074252489
1.074252489
1.074252489
1.074252489
1.074252489
1.074252489
1.074252489
1.074252489
1.074252489
1.074252489
55299.17374
55299.20093
55299.27722
55299.40767
55299.49646
55299.21892
55297.982
55294.2921
2.485326426
2.245813215
1.967366326
1.710933869
1.50449126
1.352169747
1.246575699
1.176955171
1.133080605
1.106619262
1.091348997
1.08292076
1.078471941
1.076225324
1.075139116
1.074635814
1.074412061
1.074316508
1.074277264
1.074261746
1.074255831
1.074253656
1.074252883
1.074252618
1.07425253
1.074252501
1.074252493
1.07425249
1.074252489
1.074252489
1.074252489
1.074252489
1.074252489
1.074252489
1.074252489
1.074252489
1.074252489
1.074252489
1.074252489
1.074252489
1.074252489
1.074252489
55298.9135
55298.9391
55299.00517
55299.09553
55299.04534
55298.56264
55297.11816
55296.02174
1.763141415
1.657844286
1.533428298
1.413030351
1.310587202
1.231060901
1.173559979
1.134393676
1.109111959
1.093600237
1.084539225
1.079494373
1.076814337
1.075454278
1.074794123
1.074487237
1.074350424
1.074291856
1.074267751
1.074258201
1.074254554
1.074253211
1.074252733
1.074252569
1.074252514
1.074252497
1.074252491
1.074252489
1.074252489
1.074252489
1.074252489
1.074252489
1.074252489
1.074252489
1.074252489
1.074252489
1.074252489
1.074252489
1.074252489
1.074252489
1.074252489
1.074252489
55298.66929
55298.69423
55298.74836
55298.77037
55298.5865
55297.93615
55296.36981
55294.91331
1.432702715
1.378423484
1.316758458
1.256408285
1.203679465
1.161554382
1.130304904
1.108570994
1.094314582
1.085461493
1.080243388
1.077318323
1.07575617
1.07496003
1.074572221
1.074391392
1.074310562
1.074275878
1.074261572
1.074255894
1.074253722
1.074252921
1.074252635
1.074252537
1.074252504
1.074252494
1.07425249
1.074252489
1.074252489
1.074252489
1.074252489
1.074252489
1.074252489
1.074252489
1.074252489
1.074252489
1.074252489
1.074252489
1.074252489
1.074252489
1.074252489
1.074252489
55298.43998
55298.46133
55298.49063
55298.42922
55298.12088
55297.3358
55295.71451
55292.98362
1.269398316
1.237661058
1.204355679
1.172481357
1.144600387
1.122105284
1.105217268
1.09333953
1.085474106
1.080552058
1.07763298
1.075988435
1.07510649
1.074655416
1.074435012
1.074331959
1.074285781
1.074265922
1.074257715
1.074254451
1.0742532
1.074252738
1.074252573
1.074252517
1.074252498
1.074252492
1.07425249
1.074252489
1.074252489
1.074252489
1.074252489
1.074252489
1.074252489
1.074252489
1.074252489
1.074252489
1.074252489
1.074252489
1.074252489
1.074252489
1.074252489
1.074252489
55298.22676
55298.24003
55298.22267
55298.07229
55297.65162
55296.76262
55295.15012
55292.86725
1.184838432
1.164403337
1.144990079
1.127320951
1.112202759
1.100097539
1.091016385
1.084615268
1.080362645
1.077692233
1.076103252
1.07520528
1.074722326
1.074474658
1.074353342
1.074296487
1.074270955
1.074259953
1.074255397
1.074253582
1.074252886
1.074252628
1.074252536
1.074252504
1.074252494
1.07425249
1.074252489
1.074252489
1.074252489
1.074252489
1.074252489
1.074252489
1.074252489
1.074252489
1.074252489
1.074252489
1.074252489
1.074252489
1.074252489
1.074252489
1.074252489
1.074252489
55298.0251
55298.01603
55297.93949
55297.70218
55297.18454
55296.22475
55294.68919
55292.78539
1.139786964
1.125609136
1.113446802
1.103126363
1.094669328
1.088065657
1.083180558
1.079762715
1.077500304
1.076081651
1.075237593
1.074760265
1.074503244
1.074371246
1.074306485
1.074276083
1.074262407
1.074256504
1.074254056
1.074253079
1.074252703
1.074252564
1.074252514
1.074252497
1.074252492
1.07425249
1.074252489
1.074252489
1.074252489
1.074252489
1.074252489
1.074252489
1.074252489
1.074252489
1.074252489
1.074252489
1.074252489
1.074252489
1.074252489
1.074252489
1.074252489
1.074252489
55297.81879
55297.7773
55297.63763
55297.32021
55296.72326
55295.72775
55294.33325
55292.72669
1.115204869
1.104783662
1.096634231
1.090243959
1.085310994
1.081617517
1.07896167
1.077137973
1.075945346
1.075203227
1.074763748
1.074515871
1.074382566
1.074314127
1.074280537
1.074264758
1.074257652
1.074254582
1.074253306
1.074252797
1.074252601
1.074252528
1.074252502
1.074252493
1.07425249
1.074252489
1.074252489
1.074252489
1.074252489
1.074252489
1.074252489
1.074252489
1.074252489
1.074252489
1.074252489
1.074252489
1.074252489
1.074252489
1.074252489
1.074252489
1.074252489
1.074252489
55297.5917
55297.51325
55297.31023
55296.91853
55296.25498
55295.25108
55294.0378
55292.686
1.101255834
1.093331661
1.087574989
1.083385039
1.080359681
1.078215109
1.076736661
1.075752624
1.075123399
1.074738014
1.074512275
1.074385888
1.074318243
1.074283616
1.074266649
1.074258684
1.074255097
1.074253547
1.074252903
1.074252645
1.074252546
1.074252509
1.074252496
1.074252491
1.07425249
1.074252489
1.074252489
1.074252489
1.074252489
1.074252489
1.074252489
1.074252489
1.074252489
1.074252489
1.074252489
1.074252489
1.074252489
1.074252489
1.074252489
1.074252489
1.074252489
1.074252489
55297.32698
55297.20872
55296.9399
55296.47081
55295.73926
55294.77357
55293.75652
55292.65999
1.092758755
1.086714851
1.082537318
1.079672325
1.077728311
1.076428712
1.075577463
1.075034275
1.074698314
1.074497712
1.074382411
1.074318735
1.074284984
1.074267822
1.07425945
1.074255531
1.074253769
1.074253008
1.074252692
1.074252565
1.074252517
1.074252499
1.074252492
1.07425249
1.074252489
1.074252489
1.074252489
1.074252489
1.074252489
1.074252489
1.074252489
1.074252489
1.074252489
1.074252489
1.074252489
1.074252489
1.074252489
1.074252489
1.074252489
1.074252489
1.074252489
1.074252489
55296.99585
55296.83302
55296.49027
55295.93737
55295.16508
55294.31417
55293.49049
55292.64551
1.087059592
1.082562088
1.079548999
1.077567581
1.076287797
1.075475956
1.074970872
1.074663451
1.074480955
1.074375632
1.074316714
1.074284851
1.074268226
1.074259868
1.074255825
1.074253942
1.074253099
1.074252736
1.074252586
1.074252525
1.074252502
1.074252494
1.07425249
1.074252489
1.074252489
1.074252489
1.074252489
1.074252489
1.074252489
1.074252489
1.074252489
1.074252489
1.074252489
1.074252489
1.074252489
1.074252489
1.074252489
1.074252489
1.074252489
1.074252489
1.074252489
1.074252489
55296.53149
55296.31559
55295.89097
55295.27446
55294.54673
55293.85956
55293.23537
55292.63396
1.082783885
1.07964518
1.077583672
1.076265091
1.075442354
1.074940865
1.074642012
1.074467865
1.074368687
1.074313552
1.074283684
1.074267953
1.074259915
1.074255939
1.074254038
1.074253161
1.07425277
1.074252603
1.074252533
1.074252506
1.074252495
1.074252491
1.07425249
1.074252489
1.074252489
1.074252489
1.074252489
1.074252489
1.074252489
1.074252489
1.074252489
1.074252489
1.074252489
1.074252489
1.074252489
1.074252489
1.074252489
1.074252489
1.074252489
1.074252489
1.074252489
1.074252489
55295.76072
55295.48639
55295.00946
55294.43434
55293.87192
55293.40115
55292.99171
55292.61659
1.079209652
1.077326329
1.076111361
1.075348908
1.074883571
1.074607206
1.074447321
1.074357104
1.074307399
1.074280641
1.07426657
1.074259348
1.074255737
1.074253982
1.074253154
1.074252775
1.074252608
1.074252537
1.074252508
1.074252496
1.074252491
1.07425249
1.074252489
1.074252489
1.074252489
1.074252489
1.074252489
1.074252489
1.074252489
1.074252489
1.074252489
1.074252489
1.074252489
1.074252489
1.074252489
1.074252489
1.074252489
1.074252489
1.074252489
1.074252489
1.074252489
1.074252489
55294.21866
55293.95887
55293.6046
55293.30891
55293.07738
55292.89467
55292.73951
55292.59771