/*--------------------------------*- C++ -*----------------------------------*\
  =========                 |
  \\      /  F ield         | OpenFOAM: The Open Source CFD Toolbox
   \\    /   O peration     | Website:  https://openfoam.org
    \\  /    A nd           | Version:  6
     \\/     M anipulation  |
\*---------------------------------------------------------------------------*/
FoamFile
{
    version     2.0;
    format      ascii;
    class       volScalarField;
    location    "0.13";
    object      Temperature;
}
// * * * * * * * * * * * * * * * * * * * * * * * * * * * * * * * * * * * * * //

dimensions      [0 0 0 1 0 0 0];

internalField   nonuniform List<scalar> 
2500
(
323.7727799
319.7296166
314.3746386
310.0401643
306.7283811
304.164361
302.020465
300.0862828
300.0383384
300.0233635
300.0139513
300.0081275
300.0046149
300.0025552
300.0013809
300.0007292
300.0003765
300.0001901
300.0000938
300.0000452
300.0000212
300.0000097
300.0000043
300.0000018
300.0000008
300.0000003
300.0000001
300
300
300
300
300
300
300
300
300
300
300
300
300
300
300
300
300
300
300
300
300
300
300
350.0567213
345.0751886
336.7422701
327.2122137
318.3996251
311.3793734
305.5207007
300.2451509
300.114929
300.0713243
300.0431579
300.0254667
300.014663
300.0082439
300.004529
300.0024324
300.0012769
300.0006548
300.0003276
300.0001596
300.0000756
300.0000347
300.0000155
300.0000067
300.0000028
300.0000011
300.0000004
300.0000002
300.0000001
300
300
300
300
300
300
300
300
300
300
300
300
300
300
300
300
300
300
300
300
300
364.8602309
360.5902994
352.4762522
341.3231246
329.0317578
318.2106483
308.9801544
300.409487
300.1975268
300.1250205
300.0772986
300.0467315
300.0276407
300.0159965
300.0090542
300.0050073
300.002702
300.0014202
300.0007256
300.0003598
300.0001728
300.0000803
300.0000361
300.0000156
300.0000065
300.0000026
300.000001
300.0000004
300.0000001
300.0000001
300
300
300
300
300
300
300
300
300
300
300
300
300
300
300
300
300
300
300
300
374.3981158
370.9982196
364.0382701
353.3446484
339.4163123
325.2872679
312.6870073
300.5952781
300.2960425
300.1924332
300.1228135
300.0769379
300.0472659
300.0284253
300.016696
300.0095536
300.0053122
300.0028638
300.0014938
300.0007528
300.0003661
300.0001717
300.0000776
300.0000338
300.0000142
300.0000058
300.0000023
300.0000009
300.0000003
300.0000001
300
300
300
300
300
300
300
300
300
300
300
300
300
300
300
300
300
300
300
300
381.5095287
378.9390891
373.2227635
363.6495221
349.6620789
332.7648205
316.6480237
300.8190773
300.426862
300.2881518
300.1918901
300.1256861
300.0806747
300.0505421
300.0307859
300.0181708
300.0103647
300.0057022
300.0030216
300.0015409
300.0007559
300.0003567
300.000162
300.0000708
300.0000298
300.0000121
300.0000047
300.0000018
300.0000007
300.0000002
300.0000001
300
300
300
300
300
300
300
300
300
300
300
300
300
300
300
300
300
300
300
387.3916049
385.6297264
381.1427678
372.7744373
359.406424
340.9100387
320.9462802
301.1132878
300.6208601
300.4400403
300.3079796
300.2114821
300.1416037
300.0919644
300.0576915
300.0348555
300.0202426
300.011288
300.006041
300.0031025
300.0015295
300.0007242
300.0003295
300.0001442
300.0000607
300.0000246
300.0000096
300.0000036
300.0000013
300.0000005
300.0000002
300.0000001
300
300
300
300
300
300
300
300
300
300
300
300
300
300
300
300
300
300
392.584472
391.6252261
388.4306045
381.3602518
368.7378125
349.4490351
325.5894709
301.5363706
300.936647
300.7011155
300.5156136
300.3693328
300.2559094
300.1706949
300.1092639
300.0670035
300.0393318
300.0220981
300.0118866
300.0061248
300.0030254
300.0014338
300.0006526
300.0002855
300.0001202
300.0000487
300.000019
300.0000072
300.0000026
300.0000009
300.0000003
300.0000001
300
300
300
300
300
300
300
300
300
300
300
300
300
300
300
300
300
300
397.4242157
397.2090266
395.401596
389.9005653
378.4167826
358.8209377
331.3654023
302.2161475
301.4852168
301.1701369
300.8971714
300.6635656
300.4707591
300.3193275
300.2068013
300.1278136
300.0754086
300.0424977
300.0228973
300.011806
300.0058315
300.0027623
300.0012561
300.000549
300.0002308
300.0000934
300.0000365
300.0000137
300.000005
300.0000018
300.0000006
300.0000002
300.0000001
300
300
300
300
300
300
300
300
300
300
300
300
300
300
300
300
300
402.2718215
402.5950545
402.1725515
398.5485312
388.7492099
369.5466945
339.1565633
303.368756
302.4654536
302.0248477
301.6002268
301.2084776
300.8691781
300.5946959
300.3871092
300.2399057
300.1417
300.0798612
300.0430006
300.0221474
300.0109246
300.005167
300.002346
300.0010236
300.0004297
300.0001737
300.0000677
300.0000255
300.0000092
300.0000032
300.0000011
300.0000004
300.0000001
300
300
300
300
300
300
300
300
300
300
300
300
300
300
300
300
300
407.5276912
408.0614697
408.7966248
407.259793
399.7135552
381.7045008
349.2081606
305.3423502
304.2243564
303.576087
302.880687
302.1999691
301.5917428
301.0919137
300.7111259
300.4403712
300.2597089
300.1460864
300.0784902
300.0403365
300.0198527
300.0093696
300.0042453
300.0018487
300.0007746
300.0003126
300.0001216
300.0000457
300.0000166
300.0000058
300.000002
300.0000006
300.0000002
300.0000001
300
300
300
300
300
300
300
300
300
300
300
300
300
300
300
300
413.3355739
413.9771392
415.3767798
415.9488476
411.2210039
395.326083
361.6546871
308.7387549
307.3619195
306.3537506
305.1675164
303.9609389
302.8665538
301.9631414
301.2751211
300.7871619
300.4627073
300.259427
300.1389505
300.0711963
300.0349445
300.0164499
300.0074357
300.003231
300.001351
300.0005442
300.0002114
300.0000792
300.0000287
300.0000101
300.0000034
300.0000011
300.0000004
300.0000001
300
300
300
300
300
300
300
300
300
300
300
300
300
300
300
300
419.7056381
420.3845196
422.1472811
424.582426
423.2275635
410.6166212
376.9969858
314.6044141
312.8954213
311.2330821
309.1522026
307.0006434
305.0465027
303.4398731
302.2234459
301.3660893
300.7994307
300.4463704
300.2381765
300.1216195
300.0595074
300.0279337
300.0125943
300.0054598
300.0022783
300.000916
300.0003552
300.0001329
300.0000481
300.0000168
300.0000057
300.0000019
300.0000006
300.0000002
300.0000001
300
300
300
300
300
300
300
300
300
300
300
300
300
300
300
426.7135664
427.4589167
429.5649451
433.2142771
435.7351467
427.9557937
396.4080483
324.7141044
322.4990864
319.6038695
315.8991681
312.0823643
308.6485895
305.8547231
303.760092
302.2967109
301.3369606
300.7429969
300.3947912
300.2008391
300.0979421
300.0458391
300.0206123
300.0089145
300.0037118
300.0014894
300.0005765
300.0002154
300.0000778
300.0000272
300.0000092
300.000003
300.000001
300.0000003
300.0000001
300
300
300
300
300
300
300
300
300
300
300
300
300
300
300
434.3806892
435.2212655
437.5457977
442.2541427
448.6851158
447.7155081
421.5145886
341.9460717
338.8225171
333.568647
326.9591211
320.2834446
314.3833505
309.6546481
306.1540047
303.7341246
302.1611289
301.1949315
300.632107
300.3203129
300.1556688
300.0726353
300.0325737
300.0140538
300.0058392
300.0023385
300.0009036
300.0003371
300.0001216
300.0000424
300.0000143
300.0000047
300.0000015
300.0000005
300.0000001
300
300
300
300
300
300
300
300
300
300
300
300
300
300
300
442.7514711
443.7212624
446.4051335
452.0252351
461.6426097
469.9091649
453.9718692
370.6832952
365.8519701
356.122126
344.4437543
333.0171239
323.154068
315.3930139
309.7307824
305.8625589
303.3722474
301.8547607
300.9766755
300.4929571
300.2387431
300.1110599
300.0496722
300.0213802
300.0088645
300.0035435
300.0013669
300.0005092
300.0001834
300.0000639
300.0000215
300.000007
300.0000022
300.0000007
300.0000002
300.0000001
300
300
300
300
300
300
300
300
300
300
300
300
300
300
451.8449377
452.9773561
456.1715464
462.7856346
475.2720638
493.739099
494.8723936
417.0050255
409.1905511
391.209432
370.989685
351.9700537
335.998191
323.6848667
314.8422713
308.8763302
305.0739332
302.775831
301.4550126
300.7314959
300.3530602
300.1637503
300.0730476
300.0313695
300.0129798
300.0051792
300.0019946
300.000742
300.0002669
300.0000929
300.0000313
300.0000102
300.0000032
300.000001
300.0000003
300.0000001
300
300
300
300
300
300
300
300
300
300
300
300
300
300
461.6264124
462.9898003
466.8735683
474.9530063
490.135853
517.0272875
544.0354066
488.2806485
476.0051762
443.4985434
409.5139376
378.9014034
353.9426562
335.1113067
321.8073468
312.9451126
307.3537013
304.0018775
302.0882855
301.0458474
300.5031182
300.2326804
300.103538
300.0443661
300.018322
300.0072984
300.0028065
300.0010426
300.0003745
300.0001302
300.0000438
300.0000143
300.0000045
300.0000014
300.0000004
300.0000001
300
300
300
300
300
300
300
300
300
300
300
300
300
300
471.9762463
473.6614364
478.4442235
488.5527892
507.4186108
542.6732061
599.1355115
591.827596
574.2651169
517.6681402
462.6654792
415.2621758
377.7574893
350.0684027
330.8234415
318.1642492
310.2561348
305.5530765
302.8853273
301.4397508
300.6904469
300.3184552
300.1413747
300.0604554
300.0249217
300.0099115
300.0038059
300.0014122
300.0005067
300.0001759
300.0000592
300.0000193
300.0000061
300.0000019
300.0000006
300.0000002
300
300
300
300
300
300
300
300
300
300
300
300
300
300
482.6791795
484.7869813
490.7435169
503.4857417
527.6565532
572.2367867
655.8205473
732.6590413
710.8728338
617.0623585
531.9364256
461.6398782
407.6233538
368.5753299
341.8595025
324.4969519
313.75267
307.4107569
303.83515
301.9072198
300.9119837
300.4195908
300.1858729
300.0793355
300.0326511
300.0129668
300.0049728
300.001843
300.0006606
300.0002292
300.000077
300.0000251
300.0000079
300.0000024
300.0000007
300.0000002
300.0000001
300
300
300
300
300
300
300
300
300
300
300
300
300
493.4037722
496.0248649
503.4325225
519.4123504
550.5368718
608.3311204
719.4302455
910.6283547
888.494141
741.7628317
616.5346019
517.1180875
442.7769152
390.0827162
354.5549092
331.7223061
317.7155372
309.5046889
304.9009168
302.4297659
301.1588313
300.5319756
300.2352058
300.1002249
300.0411884
300.0163363
300.0062579
300.002317
300.0008297
300.0002876
300.0000966
300.0000314
300.0000099
300.000003
300.0000009
300.0000003
300.0000001
300
300
300
300
300
300
300
300
300
300
300
300
300
503.7000294
506.9010651
515.973028
535.7459603
575.2774139
651.5749256
800.0012423
1115.81869
1101.517969
886.5222784
712.3270118
578.744865
481.2489401
413.3465483
368.1602322
339.4081475
321.9056754
311.7078504
306.0177423
302.9755019
301.4159047
300.6487359
300.2863547
300.1218453
300.0500109
300.0198138
300.0075827
300.002805
300.0010038
300.0003477
300.0001167
300.000038
300.000012
300.0000037
300.0000011
300.0000003
300.0000001
300
300
300
300
300
300
300
300
300
300
300
300
300
513.022271
516.8273362
527.6330307
551.4065494
599.723912
695.9962039
884.9293293
1332.893252
1333.472295
1039.552605
811.3570012
641.3764644
519.836059
436.4410307
381.5573198
346.9275613
325.9837938
313.8430542
307.0963629
303.5010527
301.6628737
300.7606789
300.3353085
300.1425072
300.0584315
300.0231292
300.0088445
300.0032695
300.0011692
300.0004048
300.0001358
300.0000441
300.0000139
300.0000043
300.0000013
300.0000004
300.0000001
300
300
300
300
300
300
300
300
300
300
300
300
300
520.776515
525.1562923
537.6143222
565.2615229
622.1948705
738.2708638
970.4280182
1536.732112
1556.13579
1182.864575
902.3763386
698.1251754
554.4168385
456.9620049
393.3821867
353.5294493
329.5491261
315.7033697
308.0334822
303.9565985
301.8765315
300.8573653
300.377532
300.1603073
300.0656784
300.0259799
300.0099285
300.0036683
300.0013112
300.0004538
300.0001521
300.0000494
300.0000156
300.0000048
300.0000014
300.0000004
300.0000001
300
300
300
300
300
300
300
300
300
300
300
300
300
526.3781707
531.2319896
545.0667967
576.0242592
640.6014801
774.3181617
1049.669177
1698.031622
1734.054955
1295.214902
972.7132524
741.5039528
580.6315161
472.4188639
402.2444787
358.4578206
332.2023108
317.0842333
308.7276419
304.2934633
302.0343019
300.928676
300.4086423
300.1734111
300.0710093
300.0280756
300.0107251
300.0039612
300.0014154
300.0004897
300.0001641
300.0000533
300.0000168
300.0000051
300.0000015
300.0000004
300.0000001
300
300
300
300
300
300
300
300
300
300
300
300
300
529.330669
534.4643282
549.1201724
582.1049247
651.6019946
796.8447152
1106.690046
1789.141574
1833.584036
1357.251305
1011.188227
765.0682786
594.7975318
480.7381103
406.9995714
361.0957075
333.6196617
317.8207501
309.097419
304.472723
302.1181854
300.9665629
300.4251609
300.1803652
300.0738371
300.0291868
300.0111473
300.0041163
300.0014707
300.0005087
300.0001705
300.0000554
300.0000175
300.0000053
300.0000016
300.0000005
300.0000001
300
300
300
300
300
300
300
300
300
300
300
300
300
529.3306701
534.4643293
549.1201736
582.104926
651.6019958
796.8447156
1106.690043
1789.14157
1833.584032
1357.251302
1011.188225
765.0682779
594.7975315
480.7381102
406.9995714
361.0957075
333.6196617
317.8207501
309.097419
304.472723
302.1181854
300.9665629
300.4251609
300.1803652
300.0738371
300.0291868
300.0111473
300.0041163
300.0014707
300.0005087
300.0001705
300.0000554
300.0000175
300.0000053
300.0000016
300.0000005
300.0000001
300
300
300
300
300
300
300
300
300
300
300
300
300
526.378174
531.2319929
545.0668002
576.0242631
640.6014842
774.3181646
1049.669175
1698.031612
1734.054945
1295.214894
972.7132486
741.5039509
580.6315153
472.4188635
402.2444786
358.4578206
332.2023108
317.0842332
308.7276419
304.2934633
302.0343019
300.928676
300.4086423
300.1734111
300.0710093
300.0280756
300.0107251
300.0039612
300.0014154
300.0004897
300.0001641
300.0000533
300.0000168
300.0000051
300.0000015
300.0000004
300.0000001
300
300
300
300
300
300
300
300
300
300
300
300
300
520.7765205
525.1562979
537.6143283
565.2615298
622.1948786
738.2708719
970.4280236
1536.732099
1556.135777
1182.864566
902.3763342
698.1251735
554.4168377
456.9620045
393.3821866
353.5294493
329.5491261
315.7033697
308.0334822
303.9565985
301.8765315
300.8573653
300.377532
300.1603073
300.0656784
300.0259799
300.0099285
300.0036683
300.0013112
300.0004538
300.0001521
300.0000494
300.0000156
300.0000048
300.0000014
300.0000004
300.0000001
300
300
300
300
300
300
300
300
300
300
300
300
300
513.0222786
516.8273441
527.6330393
551.4065597
599.723925
695.99622
884.9293471
1332.893242
1333.472284
1039.552599
811.3569988
641.3764636
519.8360588
436.4410307
381.5573199
346.9275614
325.9837939
313.8430542
307.096363
303.5010527
301.6628738
300.7606789
300.3353085
300.1425072
300.0584315
300.0231292
300.0088445
300.0032695
300.0011692
300.0004048
300.0001358
300.0000441
300.0000139
300.0000043
300.0000013
300.0000004
300.0000001
300
300
300
300
300
300
300
300
300
300
300
300
300
503.7000391
506.9010752
515.973039
535.7459735
575.2774313
651.5749496
800.0012707
1115.81869
1101.517968
886.5222798
712.3270132
578.7448662
481.248941
413.346549
368.1602326
339.4081477
321.9056756
311.7078505
306.0177423
302.9755019
301.4159047
300.6487359
300.2863547
300.1218453
300.0500109
300.0198138
300.0075827
300.002805
300.0010038
300.0003477
300.0001167
300.000038
300.000012
300.0000037
300.0000011
300.0000003
300.0000001
300
300
300
300
300
300
300
300
300
300
300
300
300
493.4037839
496.0248769
503.4325353
519.4123653
550.5368916
608.3311475
719.4302779
910.6283743
888.4941542
741.7628404
616.534607
517.1180906
442.7769172
390.0827174
354.5549099
331.7223065
317.7155375
309.504689
304.9009169
302.4297659
301.1588313
300.5319756
300.2352058
300.1002249
300.0411884
300.0163363
300.0062579
300.002317
300.0008297
300.0002876
300.0000966
300.0000314
300.0000099
300.000003
300.0000009
300.0000003
300.0000001
300
300
300
300
300
300
300
300
300
300
300
300
300
482.6791929
484.7869949
490.7435308
503.4857568
527.656572
572.2368096
655.8205768
732.659068
710.8728519
617.0623699
531.9364325
461.6398824
407.6233564
368.5753314
341.8595033
324.4969524
313.7526702
307.410757
303.83515
301.9072198
300.9119837
300.4195908
300.1858729
300.0793355
300.0326511
300.0129668
300.0049728
300.001843
300.0006606
300.0002292
300.000077
300.0000251
300.0000079
300.0000024
300.0000007
300.0000002
300.0000001
300
300
300
300
300
300
300
300
300
300
300
300
300
471.9762612
473.661451
478.4442376
488.552803
507.4186247
542.6732181
599.1355267
591.827615
574.2651317
517.6681504
462.6654859
415.2621801
377.757492
350.0684043
330.8234424
318.1642497
310.2561351
305.5530766
302.8853274
301.4397509
300.690447
300.3184553
300.1413747
300.0604554
300.0249217
300.0099115
300.0038059
300.0014122
300.0005067
300.0001759
300.0000592
300.0000193
300.0000061
300.0000019
300.0000006
300.0000002
300
300
300
300
300
300
300
300
300
300
300
300
300
300
461.6264285
462.9898157
466.8735821
474.9530175
490.1358585
517.0272799
544.0354123
488.2806629
476.0051866
443.4985512
409.5139432
378.901407
353.9426585
335.1113082
321.8073477
312.9451131
307.3537016
304.0018777
302.0882856
301.0458475
300.5031182
300.2326804
300.103538
300.0443661
300.018322
300.0072984
300.0028065
300.0010426
300.0003745
300.0001302
300.0000438
300.0000143
300.0000045
300.0000014
300.0000004
300.0000001
300
300
300
300
300
300
300
300
300
300
300
300
300
300
451.8449554
452.9773724
456.1715603
462.7856451
475.2720646
493.7390884
494.8723947
417.0050324
409.1905579
391.2094376
370.9896891
351.9700565
335.9981928
323.6848678
314.842272
308.8763306
305.0739334
302.7758311
301.4550126
300.7314959
300.3530602
300.1637503
300.0730476
300.0313695
300.0129798
300.0051792
300.0019946
300.000742
300.0002669
300.0000929
300.0000313
300.0000102
300.0000032
300.000001
300.0000003
300.0000001
300
300
300
300
300
300
300
300
300
300
300
300
300
300
442.7514905
443.7212802
446.4051492
452.0252491
461.6426148
469.909161
453.9718675
370.6832992
365.8519745
356.1221297
344.4437571
333.0171259
323.1540693
315.3930147
309.7307829
305.8625592
303.3722476
301.8547607
300.9766755
300.4929571
300.2387431
300.1110599
300.0496722
300.0213802
300.0088645
300.0035435
300.0013669
300.0005092
300.0001834
300.0000639
300.0000215
300.000007
300.0000022
300.0000007
300.0000002
300.0000001
300
300
300
300
300
300
300
300
300
300
300
300
300
300
434.3807111
435.2212858
437.5458176
442.2541626
448.6851295
447.7155093
421.5145887
341.9460751
338.8225199
333.5686494
326.9591229
320.2834459
314.3833513
309.6546487
306.154005
303.7341248
302.161129
301.1949315
300.6321071
300.3203129
300.1556688
300.0726353
300.0325737
300.0140538
300.0058392
300.0023385
300.0009036
300.0003371
300.0001216
300.0000424
300.0000143
300.0000047
300.0000015
300.0000005
300.0000001
300
300
300
300
300
300
300
300
300
300
300
300
300
300
300
426.7135914
427.4589408
429.5649722
433.2143069
435.7351664
427.9558019
396.408061
324.714107
322.4990884
319.603871
315.8991692
312.0823651
308.64859
305.8547234
303.7600922
302.296711
301.3369607
300.742997
300.3947912
300.2008391
300.0979421
300.0458391
300.0206123
300.0089145
300.0037118
300.0014894
300.0005765
300.0002154
300.0000778
300.0000272
300.0000092
300.000003
300.000001
300.0000003
300.0000001
300
300
300
300
300
300
300
300
300
300
300
300
300
300
300
419.7056663
420.3845485
422.1473157
424.5824611
423.2275904
410.6166507
376.9970704
314.6044181
312.8954229
311.2330831
309.1522033
307.0006438
305.0465029
303.4398733
302.2234461
301.3660893
300.7994308
300.4463704
300.2381765
300.1216195
300.0595074
300.0279337
300.0125943
300.0054598
300.0022783
300.000916
300.0003552
300.0001329
300.0000481
300.0000168
300.0000057
300.0000019
300.0000006
300.0000002
300.0000001
300
300
300
300
300
300
300
300
300
300
300
300
300
300
300
413.3356044
413.9771719
415.376817
415.9488833
411.2210329
395.3261134
361.6547386
308.7387563
307.3619203
306.3537511
305.1675167
303.9609391
302.8665539
301.9631415
301.2751212
300.787162
300.4627074
300.259427
300.1389506
300.0711963
300.0349445
300.0164499
300.0074357
300.003231
300.001351
300.0005442
300.0002114
300.0000792
300.0000287
300.0000101
300.0000034
300.0000011
300.0000004
300.0000001
300
300
300
300
300
300
300
300
300
300
300
300
300
300
300
300
407.5277225
408.0615025
408.7966603
407.2598271
399.7135824
381.7045218
349.2081758
305.342351
304.2243568
303.5760872
302.8806871
302.1999692
301.5917429
301.0919137
300.711126
300.4403712
300.2597089
300.1460864
300.0784902
300.0403365
300.0198527
300.0093696
300.0042453
300.0018487
300.0007746
300.0003126
300.0001216
300.0000457
300.0000166
300.0000058
300.000002
300.0000006
300.0000002
300.0000001
300
300
300
300
300
300
300
300
300
300
300
300
300
300
300
300
402.2718518
402.595086
402.1725856
398.5485643
388.7492351
369.5467068
339.1565646
303.3687562
302.4654537
302.0248478
301.6002268
301.2084776
300.8691781
300.5946959
300.3871092
300.2399057
300.1417
300.0798612
300.0430006
300.0221474
300.0109246
300.005167
300.002346
300.0010236
300.0004297
300.0001737
300.0000677
300.0000255
300.0000092
300.0000032
300.0000011
300.0000004
300.0000001
300
300
300
300
300
300
300
300
300
300
300
300
300
300
300
300
300
397.4242445
397.2090579
395.4016309
389.9005996
378.4168081
358.8209481
331.3654025
302.2161475
301.4852168
301.1701369
300.8971713
300.6635656
300.470759
300.3193275
300.2068013
300.1278136
300.0754086
300.0424977
300.0228973
300.011806
300.0058315
300.0027623
300.0012561
300.000549
300.0002308
300.0000934
300.0000365
300.0000137
300.000005
300.0000018
300.0000006
300.0000002
300.0000001
300
300
300
300
300
300
300
300
300
300
300
300
300
300
300
300
300
392.5845002
391.6252584
388.4306415
381.360289
368.7378416
349.4490507
325.5894784
301.5363708
300.9366469
300.7011154
300.5156135
300.3693327
300.2559094
300.1706949
300.1092639
300.0670035
300.0393318
300.0220981
300.0118866
300.0061248
300.0030254
300.0014338
300.0006526
300.0002855
300.0001202
300.0000487
300.000019
300.0000072
300.0000026
300.0000009
300.0000003
300.0000001
300
300
300
300
300
300
300
300
300
300
300
300
300
300
300
300
300
300
387.3916323
385.6297588
381.1428057
372.7744763
359.4064571
340.9100577
320.9462941
301.113288
300.62086
300.4400402
300.3079795
300.211482
300.1416036
300.0919644
300.0576915
300.0348555
300.0202426
300.011288
300.006041
300.0031025
300.0015295
300.0007242
300.0003295
300.0001442
300.0000607
300.0000246
300.0000096
300.0000036
300.0000013
300.0000005
300.0000002
300.0000001
300
300
300
300
300
300
300
300
300
300
300
300
300
300
300
300
300
300
381.5095523
378.9391174
373.2227971
363.6495574
349.6621087
332.7648394
316.6480333
300.8190774
300.4268619
300.2881517
300.1918901
300.125686
300.0806746
300.0505421
300.0307859
300.0181708
300.0103647
300.0057022
300.0030216
300.0015409
300.0007559
300.0003567
300.000162
300.0000708
300.0000298
300.0000121
300.0000047
300.0000018
300.0000007
300.0000002
300.0000001
300
300
300
300
300
300
300
300
300
300
300
300
300
300
300
300
300
300
300
374.3981305
370.9982368
364.0382904
353.3446686
339.4163278
325.287277
312.6870112
300.5952781
300.2960424
300.1924331
300.1228135
300.0769379
300.0472659
300.0284253
300.016696
300.0095536
300.0053122
300.0028638
300.0014938
300.0007528
300.0003661
300.0001717
300.0000776
300.0000338
300.0000142
300.0000058
300.0000023
300.0000009
300.0000003
300.0000001
300
300
300
300
300
300
300
300
300
300
300
300
300
300
300
300
300
300
300
300
364.8602322
360.5902991
352.4762515
341.3231245
329.0317594
318.2106484
308.9801541
300.4094869
300.1975267
300.1250204
300.0772985
300.0467314
300.0276407
300.0159965
300.0090542
300.0050073
300.002702
300.0014202
300.0007256
300.0003598
300.0001728
300.0000803
300.0000361
300.0000156
300.0000065
300.0000026
300.000001
300.0000004
300.0000001
300.0000001
300
300
300
300
300
300
300
300
300
300
300
300
300
300
300
300
300
300
300
300
350.0567111
345.0751723
336.7422534
327.2122036
318.3996145
311.3793679
305.5206988
300.2451508
300.1149289
300.0713242
300.0431579
300.0254667
300.014663
300.0082439
300.004529
300.0024324
300.0012769
300.0006548
300.0003276
300.0001596
300.0000756
300.0000347
300.0000155
300.0000067
300.0000028
300.0000011
300.0000004
300.0000002
300.0000001
300
300
300
300
300
300
300
300
300
300
300
300
300
300
300
300
300
300
300
300
300
323.772772
319.7296044
314.3746293
310.0401578
306.728376
304.1643578
302.0204637
300.0862828
300.0383384
300.0233634
300.0139513
300.0081275
300.0046149
300.0025552
300.0013809
300.0007292
300.0003765
300.0001901
300.0000938
300.0000452
300.0000212
300.0000097
300.0000043
300.0000018
300.0000008
300.0000003
300.0000001
300
300
300
300
300
300
300
300
300
300
300
300
300
300
300
300
300
300
300
300
300
300
300
)
;

boundaryField
{
    lowerWall
    {
        type            fixedValue;
        value           uniform 300;
    }
    atmosphere
    {
        type            zeroGradient;
    }
    rightWall
    {
        type            empty;
    }
    leftWall
    {
        type            empty;
    }
    frontAndBack
    {
        type            fixedValue;
        value           uniform 300;
    }
}


// ************************************************************************* //
