/*--------------------------------*- C++ -*----------------------------------*\
  =========                 |
  \\      /  F ield         | OpenFOAM: The Open Source CFD Toolbox
   \\    /   O peration     | Website:  https://openfoam.org
    \\  /    A nd           | Version:  6
     \\/     M anipulation  |
\*---------------------------------------------------------------------------*/
FoamFile
{
    version     2.0;
    format      ascii;
    class       volVectorField;
    location    "0.13";
    object      U;
}
// * * * * * * * * * * * * * * * * * * * * * * * * * * * * * * * * * * * * * //

dimensions      [0 1 -1 0 0 0 0];

internalField   nonuniform List<vector> 
2500
(
(0 -1.322464517 -0.6937612304)
(0 0.01132860092 -0.3328841222)
(0 0.1706355733 -0.1347627097)
(0 0.297800881 -0.04881494642)
(0 0.2974697331 0.001492399833)
(0 0.2301655055 0.04527816442)
(0 0.03520574159 0.07057934178)
(0 -0.0009716078102 0.003437807927)
(0 -4.80274234e-14 1.722895085e-17)
(0 -9.552425675e-14 -4.149182135e-16)
(0 -9.417262434e-14 -8.175664702e-16)
(0 -9.216573842e-14 -1.189396967e-15)
(0 -8.94561713e-14 -1.51976563e-15)
(0 -8.613551418e-14 -1.80044327e-15)
(0 -8.230816773e-14 -2.026442396e-15)
(0 -7.808522654e-14 -2.196056274e-15)
(0 -7.357826242e-14 -2.310509826e-15)
(0 -6.889402693e-14 -2.373392232e-15)
(0 -6.413038148e-14 -2.389997864e-15)
(0 -5.937354137e-14 -2.366672238e-15)
(0 -5.469655732e-14 -2.310229102e-15)
(0 -5.015885488e-14 -2.227475702e-15)
(0 -4.580660226e-14 -2.124859134e-15)
(0 -4.167366882e-14 -2.008229274e-15)
(0 -3.778295601e-14 -1.882703201e-15)
(0 -3.414791777e-14 -1.752611042e-15)
(0 -3.077412863e-14 -1.621502348e-15)
(0 -2.766079746e-14 -1.492193815e-15)
(0 -2.480216038e-14 -1.366842244e-15)
(0 -2.218871507e-14 -1.247030159e-15)
(0 -1.980828025e-14 -1.133854843e-15)
(0 -1.764687994e-14 -1.028014515e-15)
(0 -1.568946216e-14 -9.298877217e-16)
(0 -1.392046761e-14 -8.396038571e-16)
(0 -1.23242671e-14 -7.571039739e-16)
(0 -1.088548695e-14 -6.821919736e-16)
(0 -9.589241018e-15 -6.145767805e-16)
(0 -8.421286527e-15 -5.539064229e-16)
(0 -7.368118719e-15 -4.997950744e-16)
(0 -6.417017457e-15 -4.518441289e-16)
(0 -5.556056609e-15 -4.096583266e-16)
(0 -4.774085211e-15 -3.728578609e-16)
(0 -4.060687636e-15 -3.410872804e-16)
(0 -3.406128451e-15 -3.140218926e-16)
(0 -2.801286385e-15 -2.913722714e-16)
(0 -2.237580626e-15 -2.728874072e-16)
(0 -1.706891626e-15 -2.583570753e-16)
(0 -1.201476983e-15 -2.47614395e-16)
(0 -7.138793187e-16 -2.405413481e-16)
(0 -2.368086622e-16 -2.370883766e-16)
(0 -1.273852067 -1.134175451)
(0 -0.6408496536 -0.7396378706)
(0 -0.2401770566 -0.3073399352)
(0 -0.008415380338 -0.06493272341)
(0 0.03916048737 0.04665849992)
(0 0.06767147223 0.1330297287)
(0 -0.01647983831 0.1665065501)
(0 -0.0001382756896 0.006724194592)
(0 -4.844800296e-14 2.944170511e-17)
(0 -9.635381807e-14 -1.264865623e-15)
(0 -9.494710309e-14 -2.483462917e-15)
(0 -9.286793758e-14 -3.609678482e-15)
(0 -9.00672176e-14 -4.609017872e-15)
(0 -8.664219094e-14 -5.456046193e-15)
(0 -8.270378073e-14 -6.135760073e-15)
(0 -7.836929397e-14 -6.643387528e-15)
(0 -7.375559838e-14 -6.983170083e-15)
(0 -6.897351497e-14 -7.166533836e-15)
(0 -6.412366149e-14 -7.210015615e-15)
(0 -5.929377261e-14 -7.133234679e-15)
(0 -5.455736079e-14 -6.957106923e-15)
(0 -4.997348491e-14 -6.702407758e-15)
(0 -4.558735583e-14 -6.388715598e-15)
(0 -4.143151289e-14 -6.033715742e-15)
(0 -3.752733778e-14 -5.652813671e-15)
(0 -3.388671692e-14 -5.258993486e-15)
(0 -3.051371141e-14 -4.862856195e-15)
(0 -2.740613735e-14 -4.472778971e-15)
(0 -2.455699673e-14 -4.09514665e-15)
(0 -2.195572767e-14 -3.734617791e-15)
(0 -1.95892646e-14 -3.394398085e-15)
(0 -1.744291282e-14 -3.076502792e-15)
(0 -1.55010515e-14 -2.781997048e-15)
(0 -1.374768386e-14 -2.511208212e-15)
(0 -1.216685521e-14 -2.263908249e-15)
(0 -1.074295975e-14 -2.039466684e-15)
(0 -9.460955467e-15 -1.836976202e-15)
(0 -8.306504821e-15 -1.65535384e-15)
(0 -7.266056425e-15 -1.493421038e-15)
(0 -6.326880709e-15 -1.349965847e-15)
(0 -5.477070341e-15 -1.223790377e-15)
(0 -4.705514165e-15 -1.113746303e-15)
(0 -4.001851667e-15 -1.018760863e-15)
(0 -3.356413442e-15 -9.378554712e-16)
(0 -2.760151899e-15 -8.701586965e-16)
(0 -2.20456543e-15 -8.14915138e-16)
(0 -1.681618614e-15 -7.714915527e-16)
(0 -1.183661255e-15 -7.393817299e-16)
(0 -7.033533004e-16 -7.18212476e-16)
(0 -2.333556906e-16 -7.077565062e-16)
(0 -1.26358957 -1.389449967)
(0 -0.9842290497 -1.205898166)
(0 -0.5153880564 -0.7024214123)
(0 -0.1873847677 -0.2413393591)
(0 -0.07101449231 0.002383290599)
(0 -0.05179216203 0.1319835024)
(0 -0.02598536424 0.161280851)
(0 0.0003322500736 -0.00183072507)
(0 -4.929286653e-14 -1.375458351e-17)
(0 -9.802248876e-14 -2.166657724e-15)
(0 -9.65174372e-14 -4.241610136e-15)
(0 -9.429129337e-14 -6.156819321e-15)
(0 -9.130253901e-14 -7.850563417e-15)
(0 -8.766225638e-14 -9.278952463e-15)
(0 -8.349550906e-14 -1.04171648e-14)
(0 -7.893263655e-14 -1.125857901e-14)
(0 -7.410140873e-14 -1.18122803e-14)
(0 -6.912087246e-14 -1.209960407e-14)
(0 -6.409708233e-14 -1.215035692e-14)
(0 -5.912063268e-14 -1.199921709e-14)
(0 -5.42657304e-14 -1.168263959e-14)
(0 -4.959046355e-14 -1.123642458e-14)
(0 -4.513791024e-14 -1.069397819e-14)
(0 -4.09377669e-14 -1.008520813e-14)
(0 -3.700823375e-14 -9.435950177e-15)
(0 -3.335796029e-14 -8.767804411e-15)
(0 -2.998791412e-14 -8.098264272e-15)
(0 -2.689308791e-14 -7.441036102e-15)
(0 -2.40639992e-14 -6.806466836e-15)
(0 -2.148796651e-14 -6.202017756e-15)
(0 -1.915016525e-14 -5.632740569e-15)
(0 -1.703447891e-14 -5.101727303e-15)
(0 -1.512416758e-14 -4.61051734e-15)
(0 -1.340237881e-14 -4.159453614e-15)
(0 -1.185252557e-14 -3.747986045e-15)
(0 -1.04585549e-14 -3.374924159e-15)
(0 -9.205128173e-15 -3.038643193e-15)
(0 -8.077731363e-15 -2.737249125e-15)
(0 -7.062730727e-15 -2.468708445e-15)
(0 -6.147386797e-15 -2.230948389e-15)
(0 -5.319837064e-15 -2.021932924e-15)
(0 -4.569055697e-15 -1.839719192e-15)
(0 -3.884796804e-15 -1.682498509e-15)
(0 -3.257526285e-15 -1.548625402e-15)
(0 -2.678346051e-15 -1.436637555e-15)
(0 -2.138913482e-15 -1.345269041e-15)
(0 -1.631358218e-15 -1.273458713e-15)
(0 -1.148197906e-15 -1.220355015e-15)
(0 -6.82254095e-16 -1.185317133e-15)
(0 -2.263526924e-16 -1.167907201e-15)
(0 -1.127168707 -1.420733639)
(0 -1.177619959 -1.515144726)
(0 -0.7773876641 -1.120359213)
(0 -0.3767392744 -0.5424507472)
(0 -0.07095590629 -0.05032228917)
(0 -0.07610958505 0.08575028626)
(0 -0.007487002327 0.102893006)
(0 0.0002453757828 -0.006628278411)
(0 -5.061371912e-14 -3.838850342e-17)
(0 -1.005924503e-13 -3.151453413e-15)
(0 -9.893726469e-14 -6.159389777e-15)
(0 -9.647689086e-14 -8.925325951e-15)
(0 -9.318935075e-14 -1.135735586e-14)
(0 -8.920879232e-14 -1.339192897e-14)
(0 -8.468340728e-14 -1.499527103e-14)
(0 -7.976440947e-14 -1.616140147e-14)
(0 -7.459662344e-14 -1.690770245e-14)
(0 -6.931159159e-14 -1.726919517e-14)
(0 -6.402327451e-14 -1.729255384e-14)
(0 -5.882605528e-14 -1.70306099e-14)
(0 -5.379456828e-14 -1.653778885e-14)
(0 -4.898482351e-14 -1.586665515e-14)
(0 -4.443613937e-14 -1.506554744e-14)
(0 -4.017348488e-14 -1.41771701e-14)
(0 -3.620993406e-14 -1.323795346e-14)
(0 -3.254903101e-14 -1.227798507e-14)
(0 -2.91869431e-14 -1.132133167e-14)
(0 -2.611433992e-14 -1.03866014e-14)
(0 -2.331797838e-14 -9.487629748e-15)
(0 -2.078200141e-14 -8.63420479e-15)
(0 -1.848897415e-14 -7.83277444e-15)
(0 -1.642068959e-14 -7.087100503e-15)
(0 -1.455877781e-14 -6.398840413e-15)
(0 -1.288515256e-14 -5.768049248e-15)
(0 -1.138232576e-14 -5.19360223e-15)
(0 -1.00336169e-14 -4.673542761e-15)
(0 -8.823280434e-15 -4.205363576e-15)
(0 -7.736570072e-15 -3.786229786e-15)
(0 -6.759755689e-15 -3.41315267e-15)
(0 -5.880105189e-15 -3.08312265e-15)
(0 -5.085841144e-15 -2.793209081e-15)
(0 -4.366079749e-15 -2.540633551e-15)
(0 -3.710757878e-15 -2.322822409e-15)
(0 -3.110552488e-15 -2.137443333e-15)
(0 -2.556795538e-15 -1.982429881e-15)
(0 -2.041386588e-15 -1.855997202e-15)
(0 -1.556704588e-15 -1.756651425e-15)
(0 -1.095519676e-15 -1.683194523e-15)
(0 -6.509054866e-16 -1.634725816e-15)
(0 -2.159457582e-16 -1.610641041e-15)
(0 -0.8837482113 -1.276168796)
(0 -1.203512877 -1.6309265)
(0 -0.9739482766 -1.485411895)
(0 -0.6057178661 -0.9627571107)
(0 -0.1672501068 -0.2918389332)
(0 -0.01679893567 0.05256519239)
(0 -0.0042255781 0.05895754977)
(0 4.583869783e-05 -0.007558491904)
(0 -5.244446371e-14 -4.465727418e-17)
(0 -1.041699956e-13 -4.263479754e-15)
(0 -1.022913097e-13 -8.319098206e-15)
(0 -9.948925946e-14 -1.202759641e-14)
(0 -9.576914203e-14 -1.52614552e-14)
(0 -9.130017154e-14 -1.793599626e-14)
(0 -8.626498157e-14 -2.001047049e-14)
(0 -8.084506797e-14 -2.148396337e-14)
(0 -7.520920242e-14 -2.238787251e-14)
(0 -6.950572386e-14 -2.277688718e-14)
(0 -6.385849706e-14 -2.272004287e-14)
(0 -5.836586769e-14 -2.229288634e-14)
(0 -5.310177565e-14 -2.157126889e-14)
(0 -4.811822214e-14 -2.062688471e-14)
(0 -4.344842519e-14 -1.95244143e-14)
(0 -3.911017291e-14 -1.83199995e-14)
(0 -3.510904872e-14 -1.706073482e-14)
(0 -3.144133851e-14 -1.578487409e-14)
(0 -2.809653045e-14 -1.452249569e-14)
(0 -2.505938599e-14 -1.329642402e-14)
(0 -2.23116026e-14 -1.212325822e-14)
(0 -1.98331112e-14 -1.101440604e-14)
(0 -1.760306096e-14 -9.977057671e-15)
(0 -1.560054488e-14 -9.015062972e-15)
(0 -1.380511632e-14 -8.129695435e-15)
(0 -1.219714062e-14 -7.320299738e-15)
(0 -1.075801908e-14 -6.584828347e-15)
(0 -9.470316244e-15 -5.920277332e-15)
(0 -8.317815199e-15 -5.323033844e-15)
(0 -7.285520457e-15 -4.789148294e-15)
(0 -6.35962359e-15 -4.314543733e-15)
(0 -5.527443208e-15 -3.895173946e-15)
(0 -4.777347965e-15 -3.527140352e-15)
(0 -4.098669024e-15 -3.206776427e-15)
(0 -3.481606587e-15 -2.930706967e-15)
(0 -2.917133757e-15 -2.695888238e-15)
(0 -2.39689992e-15 -2.499633939e-15)
(0 -1.913135027e-15 -2.339630906e-15)
(0 -1.458555539e-15 -2.213947667e-15)
(0 -1.026272296e-15 -2.12103822e-15)
(0 -6.097006124e-16 -2.059742901e-15)
(0 -2.022679176e-16 -2.029288133e-15)
(0 -0.5762429891 -1.001549344)
(0 -1.076376884 -1.532681399)
(0 -1.062083244 -1.694423207)
(0 -0.8161565565 -1.373081232)
(0 -0.3658503812 -0.6800068579)
(0 0.007302297826 -0.02678082739)
(0 -0.003186739388 0.07028280001)
(0 -0.0002123908768 -0.009817772689)
(0 -5.48592913e-14 -5.898924858e-17)
(0 -1.088994915e-13 -5.559926384e-15)
(0 -1.067013813e-13 -1.082583114e-14)
(0 -1.034192478e-13 -1.560429244e-14)
(0 -9.909775059e-14 -1.972465274e-14)
(0 -9.395780761e-14 -2.307993126e-14)
(0 -8.823137439e-14 -2.562648972e-14)
(0 -8.214181149e-14 -2.737599249e-14)
(0 -7.588954726e-14 -2.838286517e-14)
(0 -6.964376195e-14 -2.873040548e-14)
(0 -6.353927366e-14 -2.851784239e-14)
(0 -5.767728131e-14 -2.78496443e-14)
(0 -5.212856666e-14 -2.682755053e-14)
(0 -4.693796892e-14 -2.554524299e-14)
(0 -4.212925416e-14 -2.408527057e-14)
(0 -3.77098054e-14 -2.251772277e-14)
(0 -3.367480864e-14 -2.090015288e-14)
(0 -3.001079189e-14 -1.92783168e-14)
(0 -2.669849303e-14 -1.768738388e-14)
(0 -2.371510245e-14 -1.615336646e-14)
(0 -2.103596041e-14 -1.469459391e-14)
(0 -1.863580085e-14 -1.332311992e-14)
(0 -1.648963108e-14 -1.204599982e-14)
(0 -1.457332736e-14 -1.086640763e-14)
(0 -1.286401458e-14 -9.784585271e-15)
(0 -1.134028548e-14 -8.798630387e-15)
(0 -9.982303352e-15 -7.905136808e-15)
(0 -8.771822398e-15 -7.099705722e-15)
(0 -7.692151396e-15 -6.377346469e-15)
(0 -6.72807996e-15 -5.732785304e-15)
(0 -5.865781341e-15 -5.160698922e-15)
(0 -5.092701808e-15 -4.65588752e-15)
(0 -4.397443624e-15 -4.21340012e-15)
(0 -3.769646364e-15 -3.828622796e-15)
(0 -3.199869689e-15 -3.497338613e-15)
(0 -2.679479461e-15 -3.215766448e-15)
(0 -2.200538206e-15 -2.980584414e-15)
(0 -1.755700316e-15 -2.788942472e-15)
(0 -1.338111901e-15 -2.638467761e-15)
(0 -9.413149104e-16 -2.527265422e-15)
(0 -5.591553998e-16 -2.45391706e-15)
(0 -1.854909897e-16 -2.417478558e-15)
(0 -0.2652485555 -0.6646821374)
(0 -0.8341864763 -1.257394181)
(0 -1.03117911 -1.711951097)
(0 -0.9549106833 -1.681581651)
(0 -0.5784266263 -1.105359746)
(0 -0.1302841974 -0.2918986045)
(0 0.002356034456 0.06653632315)
(0 -0.0006772380966 -0.01531392943)
(0 -5.79724622e-14 -9.856952054e-17)
(0 -1.149824059e-13 -7.119598047e-15)
(0 -1.123356758e-13 -1.381986504e-14)
(0 -1.083880811e-13 -1.983877177e-14)
(0 -1.032447808e-13 -2.495261568e-14)
(0 -9.720200852e-14 -2.903231001e-14)
(0 -9.05610428e-14 -3.203935098e-14)
(0 -8.360144342e-14 -3.40105074e-14)
(0 -7.656361542e-14 -3.503711057e-14)
(0 -6.964070108e-14 -3.524400101e-14)
(0 -6.297773587e-14 -3.477129058e-14)
(0 -5.667557583e-14 -3.376033825e-14)
(0 -5.079737435e-14 -3.234410164e-14)
(0 -4.537594218e-14 -3.064132853e-14)
(0 -4.042090496e-14 -2.875376497e-14)
(0 -3.592505523e-14 -2.67655272e-14)
(0 -3.186964276e-14 -2.474389018e-14)
(0 -2.82285695e-14 -2.274090226e-14)
(0 -2.497158011e-14 -2.079539508e-14)
(0 -2.206659602e-14 -1.893509556e-14)
(0 -1.948135605e-14 -1.717865615e-14)
(0 -1.718451712e-14 -1.553749944e-14)
(0 -1.514634867e-14 -1.401742888e-14)
(0 -1.333913033e-14 -1.261999331e-14)
(0 -1.173733908e-14 -1.134361529e-14)
(0 -1.031769216e-14 -1.018450483e-14)
(0 -9.059094418e-15 -9.137385876e-15)
(0 -7.942525905e-15 -8.196063837e-15)
(0 -6.950894781e-15 -7.353861393e-15)
(0 -6.06887291e-15 -6.603947056e-15)
(0 -5.282725806e-15 -5.939578026e-15)
(0 -4.580144406e-15 -5.354275545e-15)
(0 -3.950083241e-15 -4.841947965e-15)
(0 -3.382607517e-15 -4.396973979e-15)
(0 -2.868750239e-15 -4.01425608e-15)
(0 -2.400379558e-15 -3.689252296e-15)
(0 -1.970075945e-15 -3.417992538e-15)
(0 -1.571018374e-15 -3.197084539e-15)
(0 -1.196878489e-15 -3.023713216e-15)
(0 -8.417215957e-16 -2.895636388e-15)
(0 -4.999137485e-16 -2.811179104e-15)
(0 -1.658294157e-16 -2.769228207e-15)
(0 -0.01431400808 -0.3375205428)
(0 -0.527602494 -0.8684161066)
(0 -0.8897942817 -1.537974565)
(0 -1.001698767 -1.84015609)
(0 -0.7568320107 -1.507361807)
(0 -0.2987643609 -0.6632040888)
(0 0.003640602075 0.01400788735)
(0 -0.0008785720209 -0.02295881038)
(0 -6.194441156e-14 -1.658380843e-16)
(0 -1.226936358e-13 -9.053826463e-15)
(0 -1.194205551e-13 -1.749496751e-14)
(0 -1.145519985e-13 -2.497784168e-14)
(0 -1.082912888e-13 -3.121427571e-14)
(0 -1.010445429e-13 -3.605696607e-14)
(0 -9.320957178e-14 -3.94878241e-14)
(0 -8.513957108e-14 -4.158940807e-14)
(0 -7.712304086e-14 -4.251099235e-14)
(0 -6.937794195e-14 -4.243719116e-14)
(0 -6.20556109e-14 -4.156302266e-14)
(0 -5.525009238e-14 -4.007638756e-14)
(0 -4.900955693e-14 -3.814727432e-14)
(0 -4.334763224e-14 -3.592229273e-14)
(0 -3.825345284e-14 -3.352301787e-14)
(0 -3.369993061e-14 -3.104680716e-14)
(0 -2.96501837e-14 -2.856904459e-14)
(0 -2.606229679e-14 -2.614606265e-14)
(0 -2.289268633e-14 -2.381824416e-14)
(0 -2.009836352e-14 -2.161300086e-14)
(0 -1.763836429e-14 -1.954746395e-14)
(0 -1.547457358e-14 -1.763081427e-14)
(0 -1.357212495e-14 -1.586623874e-14)
(0 -1.189951377e-14 -1.425253269e-14)
(0 -1.04285261e-14 -1.278538537e-14)
(0 -9.134056059e-15 -1.145839256e-14)
(0 -7.993862354e-15 -1.026384063e-14)
(0 -6.988297915e-15 -9.193303317e-15)
(0 -6.100034615e-15 -8.238087955e-15)
(0 -5.313796594e-15 -7.389562371e-15)
(0 -4.61610983e-15 -6.639388836e-15)
(0 -3.995071747e-15 -5.979686507e-15)
(0 -3.440142058e-15 -5.403139786e-15)
(0 -2.941954478e-15 -4.903066483e-15)
(0 -2.492148006e-15 -4.473456758e-15)
(0 -2.083215918e-15 -4.108991411e-15)
(0 -1.70837045e-15 -3.805046196e-15)
(0 -1.361420994e-15 -3.557687243e-15)
(0 -1.03666375e-15 -3.36366151e-15)
(0 -7.287807984e-16 -3.220385171e-15)
(0 -4.327472186e-16 -3.125932137e-15)
(0 -1.435400931e-16 -3.079024271e-15)
(0 0.1164606495 -0.0890599874)
(0 -0.2170896254 -0.4561778421)
(0 -0.6586483323 -1.206073981)
(0 -0.9478629555 -1.819487407)
(0 -0.8779941241 -1.826935524)
(0 -0.4655699816 -1.094085958)
(0 -0.008255068939 -0.1313977277)
(0 1.803349205e-05 -0.02614264648)
(0 -6.699312179e-14 -2.267299322e-16)
(0 -1.32426525e-13 -1.152976205e-14)
(0 -1.28259691e-13 -2.212766892e-14)
(0 -1.221073893e-13 -3.136264814e-14)
(0 -1.143239052e-13 -3.886903398e-14)
(0 -1.054755569e-13 -4.449295152e-14)
(0 -9.60934848e-14 -4.826523778e-14)
(0 -8.662461167e-14 -5.034813167e-14)
(0 -7.741139851e-14 -5.098020749e-14)
(0 -6.869273139e-14 -5.043078412e-14)
(0 -6.061693228e-14 -4.896731085e-14)
(0 -5.325982749e-14 -4.68350319e-14)
(0 -4.664327952e-14 -4.424644055e-14)
(0 -4.075168574e-14 -4.137767136e-14)
(0 -3.554541939e-14 -3.836931661e-14)
(0 -3.097108195e-14 -3.532973433e-14)
(0 -2.696889825e-14 -3.233949827e-14)
(0 -2.347776907e-14 -2.945612461e-14)
(0 -2.043851832e-14 -2.671856959e-14)
(0 -1.779581581e-14 -2.415123972e-14)
(0 -1.549916945e-14 -2.176741466e-14)
(0 -1.350329191e-14 -1.957207707e-14)
(0 -1.17680671e-14 -1.756419484e-14)
(0 -1.025827696e-14 -1.573852399e-14)
(0 -8.943198951e-15 -1.408700767e-14)
(0 -7.796147417e-15 -1.259984316e-14)
(0 -6.794005174e-15 -1.126628227e-14)
(0 -5.916773234e-15 -1.007522074e-14)
(0 -5.147153835e-15 -9.015623459e-15)
(0 -4.470173791e-15 -8.076823545e-15)
(0 -3.872849943e-15 -7.248725807e-15)
(0 -3.343895356e-15 -6.521938887e-15)
(0 -2.873463217e-15 -5.887855019e-15)
(0 -2.452924489e-15 -5.338692149e-15)
(0 -2.074675167e-15 -4.867509772e-15)
(0 -1.731968996e-15 -4.468207132e-15)
(0 -1.418771777e-15 -4.135510372e-15)
(0 -1.129633688e-15 -3.864953565e-15)
(0 -8.595764177e-16 -3.652857303e-15)
(0 -6.039922223e-16 -3.496307589e-15)
(0 -3.585528477e-16 -3.393136974e-15)
(0 -1.189215493e-16 -3.341909372e-15)
(0 0.1339692921 -0.006370372716)
(0 0.02654507927 -0.1293479343)
(0 -0.3757623872 -0.7830237097)
(0 -0.7982566727 -1.617071551)
(0 -0.9240044089 -2.008415914)
(0 -0.6195735709 -1.536129538)
(0 -0.07128014297 -0.4501189692)
(0 0.002624480819 -0.02658917766)
(0 -7.34141809e-14 -6.671004422e-16)
(0 -1.447564595e-13 -1.483791414e-14)
(0 -1.392534412e-13 -2.812217011e-14)
(0 -1.312933635e-13 -3.947499044e-14)
(0 -1.214215922e-13 -4.84053379e-14)
(0 -1.104407467e-13 -5.477991148e-14)
(0 -9.906475194e-14 -5.873166207e-14)
(0 -8.785454078e-14 -6.055751939e-14)
(0 -7.720569331e-14 -6.063093092e-14)
(0 -6.736504531e-14 -5.933853781e-14)
(0 -5.845985869e-14 -5.704056836e-14)
(0 -5.052922208e-14 -5.40501704e-14)
(0 -4.355219639e-14 -5.062596237e-14)
(0 -3.74705083e-14 -4.697279677e-14)
(0 -3.220551581e-14 -4.324698192e-14)
(0 -2.767011227e-14 -3.95634307e-14)
(0 -2.377657398e-14 -3.600318249e-14)
(0 -2.04413681e-14 -3.262044084e-14)
(0 -1.758780144e-14 -2.944872567e-14)
(0 -1.514720858e-14 -2.650601542e-14)
(0 -1.305920164e-14 -2.379890813e-14)
(0 -1.127135376e-14 -2.132590578e-14)
(0 -9.738571872e-15 -1.907995379e-14)
(0 -8.422326607e-15 -1.70503697e-14)
(0 -7.289845271e-15 -1.522428307e-14)
(0 -6.313330661e-15 -1.358769212e-14)
(0 -5.469239929e-15 -1.212622441e-14)
(0 -4.737639101e-15 -1.082567226e-14)
(0 -4.101637421e-15 -9.672358932e-15)
(0 -3.546898942e-15 -8.653379216e-15)
(0 -3.061225173e-15 -7.756748234e-15)
(0 -2.63420096e-15 -6.971484281e-15)
(0 -2.25689532e-15 -6.287645238e-15)
(0 -1.921609231e-15 -5.696333316e-15)
(0 -1.621662988e-15 -5.189679104e-15)
(0 -1.351216519e-15 -4.760813121e-15)
(0 -1.105116883e-15 -4.403830852e-15)
(0 -8.787679248e-16 -4.113755698e-15)
(0 -6.680177741e-16 -3.886503e-15)
(0 -4.69060469e-16 -3.71884743e-15)
(0 -2.783490019e-16 -3.608395374e-15)
(0 -9.23124912e-17 -3.553563386e-15)
(0 0.1480656765 0.01613481814)
(0 0.1502683751 0.03484139942)
(0 -0.09280468164 -0.3591436022)
(0 -0.5718343021 -1.25968106)
(0 -0.886253905 -2.011390621)
(0 -0.7537371224 -1.917687025)
(0 -0.2089082345 -0.8829771754)
(0 0.00598641567 -0.05072881245)
(0 -8.128265782e-14 -1.065366078e-15)
(0 -1.60116212e-13 -1.918926826e-14)
(0 -1.528967673e-13 -3.604565243e-14)
(0 -1.42390557e-13 -5.00080177e-14)
(0 -1.296288263e-13 -6.049608506e-14)
(0 -1.158018811e-13 -6.748887438e-14)
(0 -1.018710927e-13 -7.132359654e-14)
(0 -8.852388052e-14 -7.251928642e-14)
(0 -7.619241693e-14 -7.16475906e-14)
(0 -6.510236883e-14 -6.925210297e-14)
(0 -5.532856486e-14 -6.580652685e-14)
(0 -4.68452215e-14 -6.169938773e-14)
(0 -3.956590589e-14 -5.723468449e-14)
(0 -3.337270529e-14 -5.26407785e-14)
(0 -2.813605332e-14 -4.808255307e-14)
(0 -2.372728252e-14 -4.367395837e-14)
(0 -2.002590839e-14 -3.948946373e-14)
(0 -1.692331225e-14 -3.557380845e-14)
(0 -1.43240929e-14 -3.194993391e-14)
(0 -1.214599828e-14 -2.862522881e-14)
(0 -1.031905981e-14 -2.559632464e-14)
(0 -8.784337561e-15 -2.285270244e-14)
(0 -7.492531015e-15 -2.037935596e-14)
(0 -6.40260624e-15 -1.815872377e-14)
(0 -5.480521378e-15 -1.617206483e-14)
(0 -4.698088754e-15 -1.440041721e-14)
(0 -4.03198531e-15 -1.282524851e-14)
(0 -3.462907759e-15 -1.142888128e-14)
(0 -2.974860793e-15 -1.019475638e-14)
(0 -2.554563093e-15 -9.107581328e-15)
(0 -2.190955007e-15 -8.153398627e-15)
(0 -1.87479236e-15 -7.319599732e-15)
(0 -1.598312252e-15 -6.594903386e-15)
(0 -1.354958355e-15 -5.969311962e-15)
(0 -1.139154972e-15 -5.434055573e-15)
(0 -9.461207435e-16 -4.981530943e-15)
(0 -7.717143545e-16 -4.605239943e-15)
(0 -6.123058358e-16 -4.299731265e-15)
(0 -4.646681498e-16 -4.060547591e-15)
(0 -3.258845967e-16 -3.88417989e-15)
(0 -1.932688029e-16 -3.768029909e-15)
(0 -6.408956101e-17 -3.710381561e-15)
(0 0.1752897765 0.01312426056)
(0 0.1854382531 0.07165602947)
(0 0.1251060495 -0.03738682774)
(0 -0.2991461301 -0.8031425752)
(0 -0.7633434187 -1.81859174)
(0 -0.8638146394 -2.17961932)
(0 -0.4122367237 -1.371641589)
(0 0.007838559856 -0.1452635052)
(0 -9.161977711e-14 -8.669880887e-16)
(0 -1.801695238e-13 -2.509144384e-14)
(0 -1.700721906e-13 -4.685913466e-14)
(0 -1.557437962e-13 -6.401254639e-14)
(0 -1.389024489e-13 -7.608031903e-14)
(0 -1.212682582e-13 -8.335499432e-14)
(0 -1.04095164e-13 -8.655429907e-14)
(0 -8.817853485e-14 -8.654857841e-14)
(0 -7.393850986e-14 -8.418839087e-14)
(0 -6.152398155e-14 -8.021618207e-14)
(0 -5.090714345e-14 -7.523447077e-14)
(0 -4.195737973e-14 -6.970654731e-14)
(0 -3.449358715e-14 -6.39729268e-14)
(0 -2.831837688e-14 -5.827333441e-14)
(0 -2.323869569e-14 -5.276869103e-14)
(0 -1.907702292e-14 -4.75605348e-14)
(0 -1.567642406e-14 -4.270701474e-14)
(0 -1.290183829e-14 -3.823547327e-14)
(0 -1.063922179e-14 -3.415202667e-14)
(0 -8.793599315e-15 -3.044867718e-14)
(0 -7.28667527e-15 -2.710848181e-14)
(0 -6.054385078e-15 -2.410923631e-14)
(0 -5.044593207e-15 -2.142604992e-14)
(0 -4.215035478e-15 -1.903310588e-14)
(0 -3.53153871e-15 -1.690483331e-14)
(0 -2.96651434e-15 -1.501665928e-14)
(0 -2.497704004e-15 -1.334546573e-14)
(0 -2.107146975e-15 -1.186984184e-14)
(0 -1.780337465e-15 -1.05701975e-14)
(0 -1.505541184e-15 -9.428784527e-15)
(0 -1.273243577e-15 -8.429658763e-15)
(0 -1.075705719e-15 -7.558606403e-15)
(0 -9.066075493e-16 -6.803050661e-15)
(0 -7.607614183e-16 -6.151949924e-15)
(0 -6.338819697e-16 -5.595694944e-15)
(0 -5.22400889e-16 -5.126010086e-15)
(0 -4.233172044e-16 -4.735861926e-15)
(0 -3.340755721e-16 -4.419377267e-15)
(0 -2.524663994e-16 -4.171771835e-15)
(0 -1.765427871e-16 -3.989290398e-15)
(0 -1.045506727e-16 -3.869158674e-15)
(0 -3.466414315e-17 -3.809547209e-15)
(0 0.214462234 0.01606777997)
(0 0.2066807302 0.06660433481)
(0 0.2279979502 0.1079409237)
(0 -0.02148996985 -0.3329253606)
(0 -0.5514734245 -1.438215633)
(0 -0.9325381894 -2.267789704)
(0 -0.6576297083 -1.861156871)
(0 0.005077942031 -0.3628301451)
(0 -1.057789603e-13 -2.221890859e-15)
(0 -2.070328793e-13 -3.413933638e-14)
(0 -1.918178699e-13 -6.228261952e-14)
(0 -1.716117414e-13 -8.309889987e-14)
(0 -1.489712742e-13 -9.645552314e-14)
(0 -1.262758611e-13 -1.032957192e-13)
(0 -1.050646768e-13 -1.049901238e-13)
(0 -8.615797232e-14 -1.029328763e-13)
(0 -6.986002059e-14 -9.834191112e-14)
(0 -5.614844872e-14 -9.219045933e-14)
(0 -4.48189301e-14 -8.520924054e-14)
(0 -3.558367754e-14 -7.791990788e-14)
(0 -2.8132693e-14 -7.067753513e-14)
(0 -2.216846952e-14 -6.371123837e-14)
(0 -1.742325371e-14 -5.715855897e-14)
(0 -1.366560622e-14 -5.109262928e-14)
(0 -1.070084686e-14 -4.554269347e-14)
(0 -8.368324177e-15 -4.050911398e-14)
(0 -6.53729681e-15 -3.597406722e-14)
(0 -5.102453418e-15 -3.190899792e-14)
(0 -3.979618941e-15 -2.827970271e-14)
(0 -3.101905671e-15 -2.504971589e-14)
(0 -2.41640058e-15 -2.218250048e-14)
(0 -1.881389624e-15 -1.964281171e-14)
(0 -1.464074781e-15 -1.739749613e-14)
(0 -1.138721177e-15 -1.541591253e-14)
(0 -8.851678648e-16 -1.367010436e-14)
(0 -6.876395302e-16 -1.213481381e-14)
(0 -5.338034822e-16 -1.078739841e-14)
(0 -4.140243551e-16 -9.607692044e-15)
(0 -3.207768831e-16 -8.577837489e-15)
(0 -2.481842585e-16 -7.682108961e-15)
(0 -1.916557735e-16 -6.90673595e-15)
(0 -1.476026378e-16 -6.239735643e-15)
(0 -1.132151331e-16 -5.67075816e-15)
(0 -8.628772604e-17 -5.190946908e-15)
(0 -6.508153535e-17 -4.792815143e-15)
(0 -4.821574414e-17 -4.470139073e-15)
(0 -3.458128137e-17 -4.217867355e-15)
(0 -2.327143574e-17 -4.032046645e-15)
(0 -1.352561365e-17 -3.909762749e-15)
(0 -4.478096192e-18 -3.849096933e-15)
(0 0.2578271765 0.0213503848)
(0 0.2468907174 0.06343834859)
(0 0.2651041587 0.1418671718)
(0 0.2023466788 0.04260320977)
(0 -0.2496368977 -0.9099585977)
(0 -0.9184383276 -2.133469875)
(0 -0.9028565439 -2.292393473)
(0 -0.005319613824 -0.7506882633)
(0 -1.244888154e-13 -5.667980059e-15)
(0 -2.421419908e-13 -4.855124446e-14)
(0 -2.190317541e-13 -8.502627341e-14)
(0 -1.899166998e-13 -1.096395354e-13)
(0 -1.590992683e-13 -1.233450116e-13)
(0 -1.298028588e-13 -1.283821128e-13)
(0 -1.03732321e-13 -1.271784778e-13)
(0 -8.153032221e-14 -1.218521133e-13)
(0 -6.319609289e-14 -1.140571295e-13)
(0 -4.839131097e-14 -1.049955485e-13)
(0 -3.663659201e-14 -9.549295705e-14)
(0 -2.742567431e-14 -8.608693849e-14)
(0 -2.028491764e-14 -7.710652552e-14)
(0 -1.479940072e-14 -6.873584725e-14)
(0 -1.06200866e-14 -6.106189685e-14)
(0 -7.461157422e-15 -5.410887449e-14)
(0 -5.09290876e-15 -4.7862107e-14)
(0 -3.333212042e-15 -4.22842758e-14)
(0 -2.039105732e-15 -3.732615872e-14)
(0 -1.099234811e-15 -3.293355606e-14)
(0 -4.273932395e-16 -2.905161576e-14)
(0 4.281715655e-17 -2.562741777e-14)
(0 3.623109805e-16 -2.261141411e-14)
(0 5.699688681e-16 -1.995813193e-14)
(0 6.953604697e-16 -1.762641374e-14)
(0 7.608774314e-16 -1.5579377e-14)
(0 7.833947164e-16 -1.378421248e-14)
(0 7.755589721e-16 -1.221189839e-14)
(0 7.46784296e-16 -1.083687894e-14)
(0 7.040197411e-16 -9.636737261e-15)
(0 6.523395064e-16 -8.591880585e-15)
(0 5.953958207e-16 -7.685247238e-15)
(0 5.357657694e-16 -6.902040541e-15)
(0 4.752163709e-16 -6.229491243e-15)
(0 4.149067652e-16 -5.65664847e-15)
(0 3.555421284e-16 -5.174198099e-15)
(0 2.974906307e-16 -4.774306974e-15)
(0 2.408722163e-16 -4.450491207e-15)
(0 1.856260284e-16 -4.197506839e-15)
(0 1.315618181e-16 -4.011261268e-15)
(0 7.839903922e-17 -3.88874408e-15)
(0 2.60016731e-17 -3.82797616e-15)
(0 0.3026093679 0.02401949048)
(0 0.2979346271 0.06959861855)
(0 0.2939352975 0.1297120256)
(0 0.3176053483 0.2149244231)
(0 0.1128092547 -0.3189740567)
(0 -0.7647815396 -1.737777992)
(0 -1.087555258 -2.583678632)
(0 -0.02370278021 -1.334414423)
(0 -1.510900439e-13 -1.174595295e-14)
(0 -2.899915754e-13 -7.257718024e-14)
(0 -2.529061608e-13 -1.196199578e-13)
(0 -2.099304796e-13 -1.470815204e-13)
(0 -1.677138516e-13 -1.589019182e-13)
(0 -1.301093274e-13 -1.597107815e-13)
(0 -9.85346773e-14 -1.534918761e-13)
(0 -7.303662401e-14 -1.432422279e-13)
(0 -5.300345581e-14 -1.310408267e-13)
(0 -3.758427623e-14 -1.182430883e-13)
(0 -2.591032004e-14 -1.056811437e-13)
(0 -1.719724601e-14 -9.382908837e-14)
(0 -1.078160177e-14 -8.292626727e-14)
(0 -6.123840846e-15 -7.306404255e-14)
(0 -2.79628094e-15 -6.424450135e-14)
(0 -4.658163692e-16 -5.641897828e-14)
(0 1.123751823e-15 -4.951264397e-14)
(0 2.1676241e-15 -4.343974858e-14)
(0 2.813422931e-15 -3.811273925e-14)
(0 3.172089548e-15 -3.344744234e-14)
(0 3.32651935e-15 -2.936576979e-14)
(0 3.338295975e-15 -2.579690509e-14)
(0 3.252885253e-15 -2.267758484e-14)
(0 3.103610745e-15 -1.995186696e-14)
(0 2.914680154e-15 -1.757062969e-14)
(0 2.703480084e-15 -1.549095047e-14)
(0 2.48231074e-15 -1.3675453e-14)
(0 2.259694015e-15 -1.209167282e-14)
(0 2.041357651e-15 -1.071146771e-14)
(0 1.830973996e-15 -9.510484986e-15)
(0 1.63071314e-15 -8.467689187e-15)
(0 1.441655785e-15 -7.56494889e-15)
(0 1.264100221e-15 -6.786678805e-15)
(0 1.097789433e-15 -6.119532297e-15)
(0 9.420780107e-16 -5.552139136e-15)
(0 7.960537702e-16 -5.074883461e-15)
(0 6.586253568e-16 -4.679717408e-15)
(0 5.285843905e-16 -4.360006346e-15)
(0 4.046486572e-16 -4.110402276e-15)
(0 2.854913236e-16 -3.926742512e-15)
(0 1.69759495e-16 -3.805971311e-15)
(0 5.628982392e-17 -3.746082634e-15)
(0 0.3511645784 0.02420688793)
(0 0.3501865444 0.07512328147)
(0 0.3504976556 0.1201730892)
(0 0.3497523472 0.2298034473)
(0 0.4492688926 0.1746533225)
(0 -0.432641119 -1.087282513)
(0 -1.145205713 -2.627247365)
(0 -0.04487831097 -2.089028183)
(0 -1.903515256e-13 -2.784249316e-14)
(0 -3.561679148e-13 -1.160976375e-13)
(0 -2.935360943e-13 -1.737803304e-13)
(0 -2.291986603e-13 -2.00161185e-13)
(0 -1.717285293e-13 -2.054735618e-13)
(0 -1.243928167e-13 -1.980721404e-13)
(0 -8.726376751e-14 -1.838406029e-13)
(0 -5.90792728e-14 -1.665877127e-13)
(0 -3.819695326e-14 -1.486234777e-13)
(0 -2.303162797e-14 -1.312566253e-13)
(0 -1.222259207e-14 -1.151606155e-13)
(0 -4.670797912e-15 -1.006227447e-13)
(0 4.801281806e-16 -8.770585953e-14)
(0 3.882365194e-15 -7.634980851e-14)
(0 6.02497767e-15 -6.643321885e-14)
(0 7.270699957e-15 -5.780994819e-14)
(0 7.886320947e-15 -5.032975125e-14)
(0 8.06669268e-15 -4.384931857e-14)
(0 7.953200506e-15 -3.823757709e-14)
(0 7.64773465e-15 -3.337766805e-14)
(0 7.223144007e-15 -2.916707835e-14)
(0 6.731002102e-15 -2.551681151e-14)
(0 6.207349113e-15 -2.235011925e-14)
(0 5.676924018e-15 -1.960109051e-14)
(0 5.156276961e-15 -1.721326001e-14)
(0 4.656054126e-15 -1.513831777e-14)
(0 4.182672363e-15 -1.333495476e-14)
(0 3.739544257e-15 -1.176785338e-14)
(0 3.32797213e-15 -1.040681767e-14)
(0 2.947798265e-15 -9.226031413e-15)
(0 2.597875602e-15 -8.203429708e-15)
(0 2.276406203e-15 -7.320169288e-15)
(0 1.981182362e-15 -6.560183759e-15)
(0 1.70975604e-15 -5.909811385e-15)
(0 1.459555602e-15 -5.357484626e-15)
(0 1.227963856e-15 -4.893472285e-15)
(0 1.012367745e-15 -4.509666569e-15)
(0 8.101873485e-16 -4.199408717e-15)
(0 6.188898625e-16 -3.957348021e-15)
(0 4.359927831e-16 -3.779330093e-15)