/*--------------------------------*- C++ -*----------------------------------*\
  =========                 |
  \\      /  F ield         | OpenFOAM: The Open Source CFD Toolbox
   \\    /   O peration     | Website:  https://openfoam.org
    \\  /    A nd           | Version:  6
     \\/     M anipulation  |
\*---------------------------------------------------------------------------*/
FoamFile
{
    version     2.0;
    format      ascii;
    class       volScalarField;
    location    "0.13";
    object      ViscousDissipation;
}
// * * * * * * * * * * * * * * * * * * * * * * * * * * * * * * * * * * * * * //

dimensions      [1 -1 -3 0 0 0 0];

internalField   nonuniform List<scalar> 
2500
(
26.74509882
17.38894633
1.466562614
0.2230286282
0.104812006
0.5391750889
0.5856815441
0.01939049038
0.01872787217
5.830955542e-24
6.388434461e-26
1.264295815e-25
2.040715228e-25
2.849428643e-25
3.600371056e-25
4.222570447e-25
4.67091623e-25
4.927047231e-25
4.995781665e-25
4.898990532e-25
4.668741914e-25
4.341074064e-25
3.951162086e-25
3.530118945e-25
3.103307292e-25
2.689845194e-25
2.302931742e-25
1.950648708e-25
1.636967074e-25
1.362770373e-25
1.126781405e-25
9.263369197e-26
7.579949593e-26
6.179840479e-26
5.025160905e-26
4.079894117e-26
3.311079862e-26
2.689399011e-26
2.189340196e-26
1.789096304e-26
1.470300873e-26
1.217682782e-26
1.018692726e-26
8.631361206e-27
7.42833528e-27
6.513204363e-27
5.835924825e-27
5.359003016e-27
5.056043919e-27
5.226160514e-27
5.073724764
9.477076679
3.709093815
0.6354636553
0.1046335797
0.1220423867
0.1561487764
0.07163883043
0.06178912786
5.951759883e-24
9.530030017e-26
1.572080226e-25
2.340914658e-25
3.137643195e-25
3.871553756e-25
4.472004973e-25
4.894963924e-25
5.123572498e-25
5.164245877e-25
5.040282105e-25
4.784846863e-25
4.434689751e-25
4.025332193e-25
3.587935599e-25
3.14769776e-25
2.723440451e-25
2.328003075e-25
1.969094483e-25
1.650332395e-25
1.372285306e-25
1.133407145e-25
9.308128197e-26
7.608821723e-26
6.197036781e-26
5.033811435e-26
4.082307056e-26
3.308946401e-26
2.683952109e-26
2.181475566e-26
1.779463359e-26
1.4593703e-26
1.205796281e-26
1.006099303e-26
8.500183384e-27
7.293262131e-27
6.375232855e-27
5.695761356e-27
5.216991087e-27
4.913025209e-27
7.585396498e-27
1.103563023
6.026042511
7.127709435
2.476060935
0.3206659472
0.02257488155
0.07480565257
0.07086131252
0.004909415835
6.202556497e-24
1.619969508e-25
2.227310706e-25
2.978293493e-25
3.746877202e-25
4.441921437e-25
4.993960105e-25
5.361473027e-25
5.530848174e-25
5.5118276e-25
5.330604133e-25
5.022509964e-25
4.625645129e-25
4.176130967e-25
3.705130001e-25
3.237422457e-25
2.791163119e-25
2.378412606e-25
2.00608866e-25
1.677069287e-25
1.391269352e-25
1.14658882e-25
9.396880145e-26
7.665832477e-26
6.230783403e-26
5.050580655e-26
4.086724701e-26
3.304394309e-26
2.6728901e-26
2.165686118e-26
1.760235099e-26
1.437634079e-26
1.182225159e-26
9.811814445e-27
8.241098177e-27
7.026890649e-27
6.103528828e-27
5.420214206e-27
4.938812951e-27
4.633207641e-27
1.216372968e-26
0.2886716275
1.574953022
7.127360438
6.328937923
1.635691196
0.1441842922
0.09660831541
0.02777130296
0.06029229426
6.599536385e-24
2.739408791e-25
3.321608221e-25
4.035046725e-25
4.748796069e-25
5.372002919e-25
5.837937751e-25
6.109669534e-25
6.179025717e-25
6.0610382e-25
5.786303784e-25
5.393291708e-25
4.92191041e-25
4.408920027e-25
3.885223797e-25
3.374741336e-25
2.894431661e-25
2.455033279e-25
2.062161251e-25
1.717499775e-25
1.419924062e-25
1.166462692e-25
9.530672182e-26
7.751912279e-26
6.282005454e-26
5.076446238e-26
4.094203404e-26
3.298566631e-26
2.657440964e-26
2.143278197e-26
1.732787677e-26
1.406529175e-26
1.148458548e-26
9.454725187e-27
7.869810625e-27
6.645233765e-27
5.714349891e-27
5.025683129e-27
4.540657979e-27
4.232830924e-27
1.868830224e-26
1.527959189
0.07312261704
3.909448789
8.352061209
5.152028183
0.6858132268
0.01489877452
0.009185238327
0.07806960617
7.182086457e-24
4.488697988e-25
5.015930846e-25
5.654104416e-25
6.266326621e-25
6.764148949e-25
7.086462527e-25
7.204048613e-25
7.117025033e-25
6.847942454e-25
6.433259214e-25
5.915288319e-25
5.33583108e-25
4.731922818e-25
4.133568851e-25
3.56305961e-25
3.035366706e-25
2.559161234e-25
2.138094987e-25
1.772098059e-25
1.458546536e-25
1.193230773e-25
9.711069719e-26
7.868460748e-26
6.352096591e-26
5.112877499e-26
4.106323924e-26
3.293165601e-26
2.63942483e-26
2.116179732e-26
1.699144225e-26
1.368160953e-26
1.106671741e-26
9.012065106e-27
7.409146207e-27
6.171509926e-27
5.231217518e-27
4.535895173e-27
4.046357221e-27
3.735688619e-27
2.677054209e-26
3.227539399
2.198536936
0.638894564
6.283819052
9.131570264
2.326719091
0.002026965586
0.0132833003
0.1315802512
8.00362727e-24
7.162053476e-25
7.575757007e-25
8.067692598e-25
8.495732656e-25
8.778726925e-25
8.866371137e-25
8.741857507e-25
8.417242801e-25
7.924955178e-25
7.308426921e-25
6.613904548e-25
5.884446617e-25
5.156294097e-25
4.457291541e-25
3.806817788e-25
3.216664724e-25
2.69239158e-25
2.234810891e-25
1.841388017e-25
1.507438426e-25
1.227079929e-25
9.939432269e-26
8.016692657e-26
6.442322848e-26
5.16128733e-26
4.124683814e-26
3.289979494e-26
2.620810512e-26
2.086522577e-26
1.661579732e-26
1.324927766e-26
1.05936799e-26
8.509748176e-27
6.885749856e-27
5.632959337e-27
4.681843502e-27
3.978921624e-27
3.484252067e-27
3.170341702e-27
3.592621671e-26
3.932554738
5.920477722
0.3635926914
2.629641661
9.573165314
5.738883853
0.3086917252
0.01251140347
0.3209174954
9.144684558e-24
1.124624476e-24
1.143392359e-24
1.164705476e-24
1.174389245e-24
1.166064186e-24
1.136676184e-24
1.086467567e-24
1.018267905e-24
9.365020144e-25
8.462168655e-25
7.523076262e-25
6.590090794e-25
5.696392286e-25
4.865407122e-25
4.111540099e-25
3.44162643e-25
2.85664692e-25
2.353403637e-25
1.925985828e-25
1.566953755e-25
1.268232217e-25
1.021741811e-25
8.198125257e-26
6.554279765e-26
5.223451191e-26
4.15127417e-26
3.291215824e-26
2.604005805e-26
2.056891826e-26
1.622832134e-26
1.279697073e-26
1.009523191e-26
7.978431834e-27
6.331015148e-27
5.061569987e-27
4.098686083e-27
3.387582638e-27
2.887432531e-27
2.570070729e-27
4.560339796e-26
3.113448388
8.111460104
3.392680203
0.1921355841
7.190771082
9.889530729
1.674831984
0.001129678489
0.7210127715
1.073367512e-23
1.755741735e-24
1.730178729e-24
1.698790634e-24
1.649004808e-24
1.578147565e-24
1.486628074e-24
1.37752164e-24
1.255676482e-24
1.126704086e-24
9.961049736e-25
8.686575583e-25
7.480900832e-25
6.369897271e-25
5.368767829e-25
4.483726147e-25
3.714044394e-25
3.054081238e-25
2.495066463e-25
2.026543939e-25
1.637457804e-25
1.316914461e-25
1.054675117e-25
8.414389294e-26
6.689728328e-26
5.301355063e-26
4.188331302e-26
3.299351697e-26
2.591703667e-26
2.030166431e-26
1.585936867e-26
1.235633996e-26
9.60408822e-27
7.451695713e-27
5.779218807e-27
4.492173977e-27
3.517012371e-27
2.797477263e-27
2.291740003e-27
1.970878695e-27
5.521437843e-26
1.540168249
6.707111578
7.525794896
0.9505747007
3.285722642
12.65488213
4.751839144
0.0470751458
0.9327927473
1.299078303e-23
2.749551336e-24
2.636995807e-24
2.505936829e-24
2.348843906e-24
2.170601272e-24
1.977398375e-24
1.776116262e-24
1.573653027e-24
1.376270626e-24
1.189108787e-24
1.015935736e-24
8.5912238e-25
7.197799846e-25
5.979901763e-25
4.930663329e-25
4.03803874e-25
3.28695266e-25
2.660999199e-25
2.143687281e-25
1.719283724e-25
1.373328598e-25
1.092901101e-25
8.667069372e-26
6.850461415e-26
5.397072315e-26
4.238214452e-26
3.317006865e-26
2.586747751e-26
2.00937599e-26
1.554074717e-26
1.196040596e-26
9.154233601e-27
6.964285926e-27
5.265704091e-27
3.960578809e-27
2.972985784e-27
2.245035247e-27
1.733794575e-27
1.409509931e-27
6.417023823e-26
0.1441551746
3.004490986
9.364423642
5.0070709
0.3529683237
11.36640778
9.290106872
0.5630326503
0.9838405529
1.616233397e-23
4.342323024e-24
4.067687291e-24
3.746877499e-24
3.393984022e-24
3.029648873e-24
2.668937097e-24
2.322793375e-24
1.998943456e-24
1.70244797e-24
1.436110848e-24
1.200864966e-24
9.961705519e-25
8.20412137e-25
6.712653971e-25
5.460105521e-25
4.417806935e-25
3.557442744e-25
2.852283565e-25
2.277929372e-25
1.812676478e-25
1.437613605e-25
1.136536264e-25
8.957497629e-26
7.038131266e-26
5.512606335e-26
4.303252497e-26
3.346788273e-26
2.591971575e-26
1.997533158e-26
1.530397146e-26
1.164174407e-26
8.779045949e-27
6.550183059e-27
4.82490122e-27
3.501547643e-27
2.501613264e-27
1.765438464e-27
1.248898584e-27
9.213437911e-28
7.191625677e-26
0.02384168043
0.6264981035
7.155367906
10.05334396
0.9894363316
6.496412756
13.3098002
2.321888019
3.609950676
2.107397238e-23
7.009305707e-24
6.39248784e-24
5.69534522e-24
4.977930983e-24
4.287360996e-24
3.648813709e-24
3.074180016e-24
2.567348373e-24
2.127397319e-24
1.750551526e-24
1.431429811e-24
1.163875297e-24
9.415183418e-25
7.581530644e-25
6.07976618e-25
4.857261559e-25
3.867409501e-25
3.069719371e-25
2.429564959e-25
1.917722064e-25
1.509797561e-25
1.18562142e-25
9.286490506e-26
7.254029349e-26
5.649691923e-26
4.385554368e-26
3.391102573e-26
2.61000954e-26
1.997441523e-26
1.517830463e-26
1.143048913e-26
8.509267201e-27
6.240543482e-27
4.488243558e-27
3.146694735e-27
2.134624151e-27
1.390487228e-27
8.688943004e-28
5.382471639e-28
7.796617072e-26
0.05931996819
0.01828450747
3.117811542
12.3615276
6.110368865
1.450286333
15.28034068
6.198777163
28.97788369
2.922614716e-23
1.179114427e-23
1.031454263e-23
8.826859051e-24
7.414531081e-24
6.145635769e-24
5.043876781e-24
4.108270525e-24
3.325866081e-24
2.678892208e-24
2.148523005e-24
1.716759991e-24
1.367293997e-24
1.085820124e-24
8.600634731e-25
6.796574125e-25
5.359533867e-25
4.218065554e-25
3.313618851e-25
2.598538611e-25
2.034262136e-25
1.589740041e-25
1.240080477e-25
9.654030655e-26
7.49882098e-26
5.809558519e-26
4.48678722e-26
3.451941722e-26
2.643085993e-26
2.011486141e-26
1.518866938e-26
1.135224886e-26
8.370918083e-27
6.061615686e-27
4.282086031e-27
2.922406322e-27
1.898393705e-27
1.146526441e-27
6.200924552e-28
2.865048132e-28
8.193321548e-26
0.07091842963
0.06180842615
0.6062978301
9.60419216
13.6921766
0.6533720226
14.01557381
12.87634565
179.877204
4.208370491e-23
2.051088756e-23
1.708896845e-23
1.395153777e-23
1.120729371e-23
8.909345916e-24
7.034818111e-24
5.530120768e-24
4.334467229e-24
3.390536156e-24
2.648478991e-24
2.066754222e-24
1.611581363e-24
1.255894885e-24
9.782085266e-25
7.615651392e-25
5.926331252e-25
4.609580511e-25
3.583561529e-25
2.784292114e-25
2.161796414e-25
1.677066733e-25
1.299673654e-25
1.005890592e-25
7.772245462e-26
5.992665714e-26
4.607932975e-26
3.53065268e-26
2.692793797e-26
2.041418665e-26
1.535355163e-26
1.142605202e-26
8.383285384e-27
6.032762163e-27
4.225757487e-27
2.847919398e-27
1.812044173e-27
1.052564699e-27
5.214050329e-28
1.849613536e-28
8.355594091e-26
0.07789638739
0.1157148044
0.01787212332
4.211409555
18.76372099
7.421630915
9.30300129
22.2004534
769.9622789
6.446506119e-23
3.683393116e-23
2.902890081e-23
2.24525904e-23
1.715582967e-23
1.303034857e-23
9.872343952e-24
7.476510373e-24
5.666513196e-24
4.300936112e-24
3.270270962e-24
2.491308578e-24
1.901451547e-24
1.453826998e-24
1.113384949e-24
8.539002087e-25
6.557156779e-25
5.040619225e-25
3.878119756e-25
2.985598252e-25
2.299378318e-25
1.771100157e-25
1.3639481e-25
1.049832907e-25
8.072802144e-26
6.198429652e-26
4.749040833e-26
3.627708227e-26
2.759879056e-26
2.088153363e-26
1.5683057e-26
1.166248883e-26
8.557136087e-27
6.164738268e-27
4.329895716e-27
2.933704557e-27
1.885867276e-27
1.118728384e-27
5.828230071e-28
2.435146875e-28
8.271697571e-26
0.09004166938
0.1134054837
0.1412264155
0.5824835569
16.10761585
21.15341986
3.466644532
31.90895527
2434.63099
1.080783516e-22
6.938158532e-23
5.066116021e-23
3.67174572e-23
2.651184081e-23
1.915865703e-23
1.389007915e-23
1.011634695e-23
7.406085691e-24
5.451006607e-24
4.033154078e-24
2.999010275e-24
2.240375461e-24
1.680733091e-24
1.26570028e-24
9.563954645e-25
7.248430209e-25
5.507845453e-25
4.194575174e-25
3.200394522e-25
2.445512925e-25
1.870792844e-25
1.43219055e-25
1.096757492e-25
8.397453005e-26
6.42496714e-26
4.90900008e-26
3.74250138e-26
2.844053024e-26
2.151593871e-26
1.617730754e-26
1.206222122e-26
8.893327569e-27
6.458389505e-27
4.595219697e-27
3.180301571e-27
2.1202119e-27
1.345190586e-27
8.043759034e-28
4.620958388e-28
7.945323765e-26
0.100728171
0.1003351092
0.1920418378
0.08646372819
7.347604419
33.58116805
3.35925447
36.93377592
5969.211732
1.971678666e-22
1.359495569e-22
9.028014125e-23
6.067370488e-23
4.113884466e-23
2.817511077e-23
1.950103005e-23
1.364071131e-23
9.639657088e-24
6.878421593e-24
4.952432445e-24
3.595211216e-24
2.62950825e-24
1.936176735e-24
1.434257649e-24
1.06814778e-24
7.992590896e-25
6.005441838e-25
4.528657837e-25
3.425636663e-25
2.598070109e-25
1.974671694e-25
1.50338837e-25
1.145968356e-25
8.7413815e-26
6.66889128e-26
5.085362785e-26
3.873189842e-26
2.943855055e-26
2.230512368e-26
1.682537708e-26
1.261504552e-26
9.381982062e-27
6.903923255e-27
5.011884671e-27
3.577744508e-27
2.504966549e-27
1.721698724e-27
1.175692885e-27
8.302521025e-28
7.395654514e-26
0.1003285412
0.1018843673
0.1307388428
0.3754869466
1.099339028
29.87448551
16.60284355
32.2790037
11678.21586
3.699152329e-22
2.716643117e-22
1.621755423e-22
1.003113472e-22
6.35699091e-23
4.115138676e-23
2.715492338e-23
1.823419463e-23
1.243939512e-23
8.608498776e-24
6.034649308e-24
4.279540856e-24
3.066420282e-24
2.217527441e-24
1.616834699e-24
1.187458382e-24
8.777307539e-25
6.524718775e-25
4.874350481e-25
3.657197578e-25
2.754228926e-25
2.080804218e-25
1.576206544e-25
1.1965287e-25
9.097853256e-26
6.9251963e-26
5.274248348e-26
4.016618037e-26
3.056590631e-26
2.322502264e-26
1.76049516e-26
1.329967239e-26
1.000237248e-26
7.480886747e-27
5.55953896e-27
4.105684652e-27
3.019736212e-27
2.227793784e-27
1.676253287e-27
1.32741817e-27
6.656416534e-26
0.09187122951
0.1044950395
0.0828026955
0.2985140418
0.1104334191
15.00220531
39.40946561
18.79080862
18654.4958
6.361594963e-22
5.374714151e-22
2.878879158e-22
1.634506423e-22
9.668040781e-23
5.914327154e-23
3.722899062e-23
2.402092023e-23
1.583720558e-23
1.064185941e-23
7.271752835e-24
5.043160433e-24
3.543813068e-24
2.519366115e-24
1.809612494e-24
1.311712028e-24
9.584957616e-25
7.053901124e-25
5.223807727e-25
3.889840566e-25
2.910470956e-25
2.186798205e-25
1.648988672e-25
1.247261858e-25
9.458224473e-26
7.187268257e-26
5.470359911e-26
4.16834162e-26
3.178365254e-26
2.42402186e-26
1.848286091e-26
1.408434744e-26
1.072362329e-26
8.158938619e-27
6.208156362e-27
4.734273988e-27
3.634767547e-27
2.833768223e-27
2.276368655e-27
1.923914018e-27
5.773950332e-26
0.08030564914
0.09247178883
0.07750870017
0.1404576508
0.497622371
3.952539312
57.93169964
4.974552296
24725.7555
1.053512456e-21
1.011466794e-21
4.905439453e-22
2.570946724e-22
1.425843957e-22
8.274413253e-23
4.984663451e-23
3.098972863e-23
1.9793331e-23
1.294107967e-23
8.635392591e-24
5.866338109e-24
4.048507328e-24
2.833079163e-24
2.007025154e-24
1.437330589e-24
1.03925574e-24
7.578186876e-25
5.567440739e-25
4.117295222e-25
3.06263943e-25
2.289845457e-25
1.719789144e-25
1.296775642e-25
9.812136279e-26
7.447050893e-26
5.667135335e-26
4.322772133e-26
3.304227887e-26
2.53053943e-26
1.941656024e-26
1.492836909e-26
1.150626524e-26
8.899438269e-27
6.919656325e-27
5.425811793e-27
4.312617265e-27
3.50235154e-27
2.938881038e-27
2.582651534e-27
4.804385124e-26
0.06780104355
0.07406073979
0.08642518239
0.07999054935
0.4011029633
0.6345137495
52.90504227
0.4218167858
27133.77397
2.339141188e-21
1.717178298e-21
7.752253446e-22
3.817816814e-22
2.009105e-22
1.115213063e-22
6.468110067e-23
3.892233057e-23
2.416925257e-23
1.542038901e-23
1.007308024e-23
6.717106958e-24
4.561046318e-24
3.146798831e-24
2.201803741e-24
1.55983582e-24
1.117231012e-24
8.080160199e-25
5.894209172e-25
4.332458191e-25
3.20607662e-25
2.3868171e-25
1.78644128e-25
1.343513288e-25
1.014791688e-25
7.69538155e-26
5.857042609e-26
4.473447828e-26
3.428426944e-26
2.636780297e-26
2.035654764e-26
1.578447394e-26
1.230460145e-26
9.657800052e-27
7.650250734e-27
6.137086634e-27
5.010490935e-27
4.191046917e-27
3.621498174e-27
3.261468746e-27
3.810082002e-26
0.05367776965
0.05717340809
0.08296434394
0.06537071382
0.196846815
0.6878646938
39.02305053
6.12455979
24260.12044
5.423716892e-21
2.554413735e-21
1.113990958e-21
5.27957923e-22
2.677913315e-22
1.437019823e-22
8.085151003e-23
4.735854352e-23
2.871671588e-23
1.79428446e-23
1.150797994e-23
7.551740746e-24
5.056228859e-24
3.445826381e-24
2.385274174e-24
1.674047536e-24
1.18928869e-24
8.54060896e-25
6.192142318e-25
4.527728404e-25
3.335843717e-25
2.474412257e-25
1.846662094e-25
1.385831053e-25
1.045318835e-25
7.922491475e-26
6.03201206e-26
4.613421459e-26
3.54476838e-26
2.73706448e-26
2.124959517e-26
1.660196167e-26
1.30697521e-26
1.038647626e-26
8.353378615e-27
6.822273149e-27
5.683110195e-27
4.854975927e-27
4.279621905e-27
3.915947584e-27
2.855570371e-26
0.03767966859
0.04264579711
0.06803653601
0.08714478043
0.09329777046
1.89680058
28.44149871
16.15762844
18652.75655
8.81141428e-21
3.382656043e-21
1.460577849e-21
6.788670795e-22
3.364686673e-22
1.763199057e-22
9.697072536e-23
5.561841665e-23
3.30902951e-23
2.03279407e-23
1.284353988e-23
8.317544267e-24
5.504772445e-24
3.7136161e-24
2.547937581e-24
1.774426204e-24
1.252145943e-24
8.939742439e-25
6.449079691e-25
4.695467357e-25
3.447015489e-25
2.549354041e-25
1.898188879e-25
1.422098527e-25
1.071564437e-25
8.118640381e-26
6.183977679e-26
4.735739039e-26
3.647051088e-26
2.825711043e-26
2.204256295e-26
1.733033455e-26
1.375315842e-26
1.103835411e-26
8.983017975e-27
7.436176242e-27
6.285903838e-27
5.450029016e-27
4.869469229e-27
4.502515717e-27
2.003251661e-26
0.02150714273
0.02892745373
0.04598233905
0.1145985128
0.04330669698
2.759242962
17.33672302
28.22410972
11355.44438
9.583867736e-21
4.095068485e-21
1.768083737e-21
8.150666629e-22
3.986136788e-22
2.056645695e-22
1.113223336e-22
6.28806272e-23
3.688499909e-23
2.237056196e-23
1.39733384e-23
8.958070554e-24
5.876118552e-24
3.933302842e-24
2.68031234e-24
1.85554326e-24
1.302636682e-24
9.258731174e-25
6.653580277e-25
4.828551353e-25
3.53502773e-25
2.608617754e-25
1.938936729e-25
1.450813409e-25
1.092393311e-25
8.274830706e-26
6.305480473e-26
4.833967784e-26
3.729541747e-26
2.897474269e-26
2.268647063e-26
1.792314551e-26
1.431025531e-26
1.157028887e-26
9.497107591e-27
7.93756414e-27
6.778271106e-27
5.936075473e-27
5.351243616e-27
4.981592651e-27
1.30917359e-26
0.008458675136
0.01779143179
0.0252475344
0.1280790863
0.09927866071
2.79306925
9.430098614
38.42272477
4643.558883
7.663834099e-21
4.603692879e-21
1.994977444e-21
9.177572122e-22
4.457965857e-22
2.279155209e-22
1.221410489e-22
6.831052764e-23
3.969652571e-23
2.387006868e-23
1.479543157e-23
9.420335333e-24
6.142125118e-24
4.089624501e-24
2.773952425e-24
1.912630393e-24
1.338013773e-24
9.481407759e-25
6.795905671e-25
4.920958435e-25
3.596041578e-25
2.649667676e-25
1.967160673e-25
1.470718824e-25
1.106855365e-25
8.383527487e-26
6.390271862e-26
4.902719777e-26
3.78744191e-26
2.947969235e-26
2.314043931e-26
1.834169717e-26
1.470397902e-26
1.194645917e-26
9.860780287e-27
8.292304504e-27
7.12664145e-27
6.279964861e-27
5.692094172e-27
5.320521366e-27
8.191839003e-27
0.001423107647
0.01174033877
0.01476583555
0.1244017451
0.1938873336
2.491342593
7.336984698
43.29541825
561.5311052
5.618503852e-21
4.863537611e-21
2.11415523e-21
9.72735475e-22
4.712426287e-22
2.399258069e-22
1.279649229e-22
7.122036097e-23
4.119521993e-23
2.466500553e-23
1.522893133e-23
9.662881327e-24
6.281063483e-24
4.1709414e-24
2.822488114e-24
1.942127231e-24
1.356243901e-24
9.59589543e-25
6.868946614e-25
4.968314303e-25
3.627278814e-25
2.670673182e-25
1.981602639e-25
1.480909035e-25
1.114265917e-25
8.439299798e-26
6.43384813e-26
4.938112952e-26
3.817296661e-26
2.974041923e-26
2.337510051e-26
1.855822401e-26
1.490777048e-26
1.21412277e-26
1.004910968e-26
8.476020362e-27
7.307059136e-27
6.458057157e-27
5.868606358e-27
5.496033351e-27
5.657522299e-27
0.001423105954
0.01174033634
0.01476583368
0.1244017456
0.1938873328
2.491342779
7.336985128
43.29541996
561.5312909
5.618503727e-21
4.863537459e-21
2.114155158e-21
9.72735451e-22
4.712426259e-22
2.399258116e-22
1.279649293e-22
7.122036673e-23
4.119522451e-23
2.466500898e-23
1.522893385e-23
9.662883152e-24
6.281064797e-24
4.17094235e-24
2.822488804e-24
1.942127736e-24
1.356244274e-24
9.595898204e-25
6.868948695e-25
4.968315875e-25
3.627280007e-25
2.670674091e-25
1.981603333e-25
1.480909564e-25
1.114266319e-25
8.439302822e-26
6.433850378e-26
4.93811459e-26
3.817297815e-26
2.974042694e-26
2.337510517e-26
1.855822624e-26
1.490777078e-26
1.214122647e-26
1.004910725e-26
8.476016988e-27
7.307055042e-27
6.458052527e-27
5.868601349e-27
5.496028174e-27
5.657033839e-27
0.008458668367
0.0177914227
0.0252475279
0.1280790679
0.09927863997
2.793069456
9.430098591
38.42272444
4643.559653
7.663833424e-21
4.603692388e-21
1.994977215e-21
9.177571341e-22
4.457965743e-22
2.279155335e-22
1.221410669e-22
6.831054425e-23
3.969653906e-23
2.387007877e-23
1.479543897e-23
9.420340695e-24
6.142128988e-24
4.0896273e-24
2.773954461e-24
1.912631885e-24
1.338014876e-24
9.48141598e-25
6.795911846e-25
4.920963105e-25
3.596045128e-25
2.649670384e-25
1.967162741e-25
1.470720403e-25
1.106856566e-25
8.383536547e-26
6.390278611e-26
4.902724704e-26
3.787445395e-26
2.947971574e-26
2.314045357e-26
1.834170416e-26
1.470398023e-26
1.194645579e-26
9.860773286e-27
8.292294676e-27
7.126629454e-27
6.27995125e-27
5.692079421e-27
5.320506102e-27
8.190378524e-27
0.02150712485
0.0289274332
0.04598232145
0.1145984669
0.04330670535
2.759242682
17.3367211
28.22410537
11355.44498
9.5838667e-21
4.095067596e-21
1.768083316e-21
8.150665156e-22
3.986136513e-22
2.056645854e-22
1.113223605e-22
6.28806529e-23
3.688502007e-23
2.237057794e-23
1.39733502e-23
8.958079132e-24
5.876124763e-24
3.933307348e-24
2.680315626e-24
1.855545675e-24
1.302638471e-24
9.258744548e-25
6.653590349e-25
4.828558989e-25
3.53503355e-25
2.608622205e-25
1.938940138e-25
1.450816019e-25
1.092395301e-25
8.274845767e-26
6.305491733e-26
4.833976043e-26
3.729547625e-26
2.897478251e-26
2.268649532e-26
1.792315814e-26
1.431025832e-26
1.157028423e-26
9.497096903e-27
7.937548722e-27
6.778252054e-27
5.936053709e-27
5.351219936e-27
4.981568097e-27
1.308931813e-26
0.03767962766
0.04264575671
0.06803649546
0.08714474347
0.09329785872
1.896799637
28.44149819
16.15761702
18652.75666
8.811410746e-21
3.382654401e-21
1.460577179e-21
6.788668497e-22
3.364686167e-22
1.7631992e-22
9.697075764e-23
5.561844907e-23
3.30903221e-23
2.032796151e-23
1.284355534e-23
8.317555577e-24
5.504780671e-24
3.713622092e-24
2.547941968e-24
1.774429441e-24
1.25214835e-24
8.939760502e-25
6.449093346e-25
4.695477749e-25
3.447023439e-25
2.549360145e-25
1.898193572e-25
1.422102133e-25
1.071567198e-25
8.118661378e-26
6.183993463e-26
4.735750693e-26
3.647059455e-26
2.825716787e-26
2.204259942e-26
1.733035422e-26
1.375316466e-26
1.103834964e-26
8.983005025e-27
7.436156638e-27
6.285879106e-27
5.450000449e-27
4.869437947e-27
4.502483168e-27
2.002916621e-26
0.05367768716
0.05717333059
0.08296426555
0.06537071216
0.196846955
0.6878642181
39.02304309
6.124552584
24260.11542
5.423710098e-21
2.554411371e-21
1.113990089e-21
5.279576243e-22
2.677912573e-22
1.437019918e-22
8.085154455e-23
4.735858024e-23
2.871674718e-23
1.794286902e-23
1.150799824e-23
7.551754207e-24
5.0562387e-24
3.445833583e-24
2.385279473e-24
1.674051465e-24
1.189291628e-24
8.540631106e-25
6.192159145e-25
4.527741274e-25
3.335853611e-25
2.474419891e-25
1.846667994e-25
1.385835609e-25
1.045322343e-25
7.922518312e-26
6.032032374e-26
4.613436585e-26
3.544779362e-26
2.737072143e-26
2.124964515e-26
1.660199023e-26
1.306976349e-26
1.038647391e-26
8.353365321e-27
6.822251247e-27
5.683081638e-27
4.854942379e-27
4.279584812e-27
3.915908793e-27
2.85514554e-26
0.06780089483
0.07406059019
0.08642504084
0.07999057753
0.4011031019
0.634513869
52.90502755
0.4218164136
27133.76835
2.339137762e-21
1.71717584e-21
7.752244431e-22
3.817813516e-22
2.009104086e-22
1.115213099e-22
6.468113536e-23
3.892236968e-23
2.416928663e-23
1.542041589e-23
1.007310052e-23
6.717121957e-24
4.561057339e-24
3.14680694e-24
2.20180974e-24
1.559840293e-24
1.117234377e-24
8.080185726e-25
5.894228688e-25
4.332473209e-25
3.206088236e-25
2.386826117e-25
1.786448291e-25
1.343518736e-25
1.01479591e-25
7.695414088e-26
5.857067441e-26
4.473466503e-26
3.428440679e-26
2.636790056e-26
2.035661318e-26
1.578451362e-26
1.230462028e-26
9.657802128e-27
7.650239423e-27
6.13706474e-27
5.010460823e-27
4.191010619e-27
3.621457467e-27
3.261425859e-27
3.809571876e-26
0.08030540933
0.09247150501
0.07750844464
0.1404574117
0.497621508
3.952537945
57.93168762
4.974552243
24725.7557
1.053510937e-21
1.011465278e-21
4.905431866e-22
2.570943457e-22
1.425842942e-22
8.274413146e-23
4.984666878e-23
3.098976902e-23
1.97933667e-23
1.294110802e-23
8.635414071e-24
5.866354056e-24
4.048519098e-24
2.833087868e-24
2.007031633e-24
1.437335452e-24
1.039259424e-24
7.578215023e-25
5.567462415e-25
4.117312023e-25
3.062652519e-25
2.289855689e-25
1.719797156e-25
1.296781914e-25
9.81218526e-26
7.447088946e-26
5.667164649e-26
4.322794425e-26
3.304244514e-26
2.530551476e-26
1.941664358e-26
1.492842233e-26
1.150629409e-26
8.899447413e-27
6.919649646e-27
5.425792541e-27
4.312588204e-27
3.502315058e-27
2.93883925e-27
2.582607026e-27
4.803795238e-26
0.09187090102
0.1044945811
0.08280218981
0.2985120916
0.1104323561
15.00219397
39.40944975
18.79080073
18654.49129
6.361587374e-22
5.374703943e-22
2.878872486e-22
1.634503166e-22
9.668029999e-23
5.914326853e-23
3.722902546e-23
2.402096177e-23
1.583724227e-23
1.06418885e-23
7.271774852e-24
5.043176795e-24
3.543825181e-24
2.519375117e-24
1.809619237e-24
1.311717126e-24
9.584996546e-25
7.053931116e-25
5.223831016e-25
3.889858768e-25
2.910485252e-25
2.18680947e-25
1.648997564e-25
1.247268875e-25
9.458279739e-26
7.187311585e-26
5.470393629e-26
4.16836757e-26
3.1783849e-26
2.42403638e-26
1.848296432e-26
1.408441679e-26
1.072366488e-26
8.158957654e-27
6.20815718e-27
4.734260249e-27
3.634742386e-27
2.833734379e-27
2.276328572e-27
1.923870612e-27
5.773287273e-26
0.1003282153
0.1018838478
0.1307377512
0.375484128
1.09933692
29.87446267
16.60285918
32.27897443
11678.21807
3.699152778e-22
2.716636322e-22
1.621749025e-22
1.003110131e-22
6.356980047e-23
4.115138718e-23
2.715496142e-23
1.823423801e-23
1.243943257e-23
8.608528064e-24
6.034671309e-24
4.279557164e-24
3.066432372e-24
2.217536467e-24
1.616841505e-24
1.18746357e-24
8.777347512e-25
6.524749859e-25
4.874374844e-25
3.657216795e-25
2.754244157e-25
2.080816327e-25
1.576216187e-25
1.196536377e-25
9.097914274e-26
6.925244604e-26
5.274286347e-26
4.01664765e-26
3.056613396e-26
2.322519424e-26
1.760507726e-26
1.329976036e-26
1.000242956e-26
7.480918565e-27
5.55955025e-27
4.105679432e-27
3.019717958e-27
2.227765563e-27
1.676217868e-27
1.327378758e-27
6.655687951e-26
0.1007280611
0.1003347354
0.1920403963
0.08646337906
7.347594471
33.58117341
3.359256649
36.9337666
5969.21471
1.971688372e-22
1.359488471e-22
9.02794231e-23
6.06733553e-23
4.113874721e-23
2.817512355e-23
1.950107531e-23
1.364075767e-23
9.639695237e-24
6.87845063e-24
4.952453942e-24
3.595227054e-24
2.629519993e-24
1.936185541e-24
1.434264339e-24
1.068152927e-24
7.99263095e-25
6.005473312e-25
4.528682764e-25
3.425656526e-25
2.598086008e-25
1.974684456e-25
1.503398629e-25
1.145976602e-25
8.74144767e-26
6.668944201e-26
5.085404885e-26
3.873223072e-26
2.943880995e-26
2.230532302e-26
1.68255269e-26
1.261515444e-26
9.382057258e-27
6.903970696e-27
5.011909401e-27
3.577750848e-27
2.504958269e-27
1.72167919e-27
1.175665178e-27
8.302196666e-28
7.394869108e-26
0.09004203134
0.1134055707
0.1412258613
0.5824833918
16.10761739
21.15343637
3.466635534
31.90896287
2434.632021
1.080795663e-22
6.938036391e-23
5.066027835e-23
3.67171146e-23
2.651177991e-23
1.915869475e-23
1.389013601e-23
1.011639716e-23
7.406124243e-24
5.451034861e-24
4.033174582e-24
2.999025259e-24
2.240386571e-24
1.680741467e-24
1.265706699e-24
9.564004562e-25
7.248469504e-25
5.507876693e-25
4.194600201e-25
3.200414687e-25
2.445529238e-25
1.870806073e-25
1.432201291e-25
1.096766211e-25
8.397523676e-26
6.425024257e-26
4.909046038e-26
3.742538124e-26
2.844082142e-26
2.151616667e-26
1.617748302e-26
1.206235311e-26
8.89342327e-27
6.458455229e-27
4.595260718e-27
3.180322441e-27
2.120216632e-27
1.345182804e-27
8.043589718e-28
4.620733781e-28
7.944491277e-26
0.07789743324
0.1157159444
0.0178718148
4.211419955
18.76372926
7.421623096
9.303007405
22.20046833
769.9630573
6.446676e-23
3.68317636e-23
2.902789323e-23
2.245233968e-23
1.715584651e-23
1.303042434e-23
9.872414851e-24
7.476563933e-24
5.666551219e-24
4.300962818e-24
3.270289938e-24
2.491322346e-24
1.901461775e-24
1.453834769e-24
1.113390971e-24
8.539049518e-25
6.557194614e-25
5.040649701e-25
3.87814448e-25
2.985618412e-25
2.299394812e-25
1.771113678e-25
1.363959191e-25
1.049842002e-25
8.072876619e-26
6.198490486e-26
4.749090341e-26
3.627748313e-26
2.759911291e-26
2.088179046e-26
1.568325912e-26
1.166264522e-26
8.55725429e-27
6.164824626e-27
4.329955645e-27
2.933742763e-27
1.885887944e-27
1.118735342e-27
5.828198645e-28
2.435051613e-28
8.270828742e-26
0.07092037165
0.06180990663
0.6063014855
9.604221817
13.69216097
0.6533636142
14.01561233
12.87634705
179.8769755
4.207318146e-23
2.050649259e-23
1.708814329e-23
1.395154521e-23
1.120743125e-23
8.909464081e-24
7.034899975e-24
5.530174733e-24
4.33450288e-24
3.39056028e-24
2.648495864e-24
2.066766441e-24
1.611590504e-24
1.255901916e-24
9.782140561e-25
7.615695625e-25
5.926367082e-25
4.609609797e-25
3.583585615e-25
2.784312004e-25
2.161812881e-25
1.677080381e-25
1.299684969e-25
1.005899966e-25
7.772323016e-26
5.992729733e-26
4.60798566e-26
3.530695866e-26
2.692829013e-26
2.041447191e-26
1.535378069e-26
1.142623386e-26
8.38342756e-27
6.032871067e-27
4.225838591e-27
2.847977477e-27
1.812083504e-27
1.052589246e-27
5.214185938e-28
1.849676422e-28
8.354700614e-26
0.05932245002
0.01828492517
3.11783317
12.36154238
6.110336378
1.450308519
15.28037237
6.198738081
28.97815416
2.921845082e-23
1.1792311e-23
1.031537402e-23
8.827326649e-24
7.414785864e-24