/*--------------------------------*- C++ -*----------------------------------*\
  =========                 |
  \\      /  F ield         | OpenFOAM: The Open Source CFD Toolbox
   \\    /   O peration     | Website:  https://openfoam.org
    \\  /    A nd           | Version:  6
     \\/     M anipulation  |
\*---------------------------------------------------------------------------*/
FoamFile
{
    version     2.0;
    format      ascii;
    class       surfaceScalarField;
    location    "0.04";
    object      alphaPhi0.phase1;
}
// * * * * * * * * * * * * * * * * * * * * * * * * * * * * * * * * * * * * * //

dimensions      [0 3 -1 0 0 0 0];

internalField   nonuniform List<scalar> 
4900
(
-1.797625921e-41
-6.644929356e-43
-1.234784866e-38
-8.971490386e-40
-1.68044813e-35
-1.552169404e-36
-3.323330498e-32
-1.5467392e-33
-1.29677412e-29
-5.430738768e-31
-3.323337423e-29
-4.128290321e-28
3.19931447e-24
-3.199347704e-24
9.866239318e-19
-1.51724377e-20
-2.865567527e-21
-6.34993257e-25
-2.841143097e-21
-2.44244303e-23
-2.793534573e-21
-4.761184869e-23
-2.72433511e-21
-6.920693746e-23
-2.635809305e-21
-8.853718106e-23
-2.530717999e-21
-1.051064799e-22
-2.41213278e-21
-1.186041465e-22
-2.283253547e-21
-1.289018783e-22
-2.147243618e-21
-1.360362526e-22
-2.007093202e-21
-1.401803757e-22
-1.865516978e-21
-1.416097682e-22
-1.724886798e-21
-1.406672529e-22
-1.587196826e-21
-1.377305122e-22
-1.45405611e-21
-1.331846568e-22
-1.32670247e-21
-1.274009091e-22
-1.20603147e-21
-1.207215205e-22
-1.092634784e-21
-1.134503768e-22
-9.868431897e-22
-1.058483693e-22
-8.887704901e-22
-9.813246726e-23
-7.983557042e-22
-9.047745205e-23
-7.154017772e-22
-8.301939296e-23
-6.396098289e-22
-7.586011168e-23
-5.706085243e-22
-6.907205962e-23
-5.079785663e-22
-6.270319585e-23
-4.512725825e-22
-5.678159244e-23
-4.000308426e-22
-5.13196049e-23
-3.537933183e-22
-4.631752837e-23
-3.121086233e-22
-4.176671891e-23
-2.745403473e-22
-3.765219815e-23
-2.406712612e-22
-3.395478316e-23
-2.101058126e-22
-3.065279571e-23
-1.824712736e-22
-2.772340943e-23
-1.574178465e-22
-2.514369316e-23
-1.346179744e-22
-2.289140465e-23
-1.137650594e-22
-2.094558405e-23
-9.457174199e-23
-1.928699198e-23
-7.676785588e-23
-1.789843459e-23
-6.00981197e-23
-1.676502643e-23
-4.431953572e-23
-1.587448344e-23
-2.919820241e-23
-1.521770925e-23
-1.450430233e-23
-1.479061958e-23
-1.460123173e-23
-1.721129397e-40
-5.96324326e-42
-2.667064115e-38
-3.422039322e-39
-2.853106438e-35
-3.286787559e-36
-1.619936571e-32
-4.026867175e-33
-3.267939987e-30
-2.968494085e-30
3.959870219e-28
-1.43141782e-27
6.098112859e-24
-9.312292585e-24
-1.555288033e-17
-4.236884059e-20
-2.889494161e-21
-9.761971667e-25
-2.864326565e-21
-4.959866419e-23
-2.815126299e-21
-9.682602403e-23
-2.74366287e-21
-1.406914418e-22
-2.652377046e-21
-1.798509085e-22
-2.544215018e-21
-2.133031212e-22
-2.422430687e-21
-2.40429731e-22
-2.290388777e-21
-2.609916091e-22
-2.151389109e-21
-2.750902306e-22
-2.008524298e-21
-2.831058932e-22
-1.864576341e-21
-2.856247286e-22
-1.721951973e-21
-2.833648091e-22
-1.582652817e-21
-2.771089205e-22
-1.448274065e-21
-2.676485975e-22
-1.320024593e-21
-2.557413658e-22
-1.198761623e-21
-2.420811238e-22
-1.085033855e-21
-2.272802748e-22
-9.791281548e-22
-2.118615302e-22
-8.811161491e-22
-1.96257096e-22
-7.908981486e-22
-1.808130605e-22
-7.082428529e-22
-1.657970978e-22
-6.328220118e-22
-1.514079736e-22
-5.642397965e-22
-1.377857121e-22
-5.020570205e-22
-1.250216246e-22
-4.458105927e-22
-1.131676835e-22
-3.950287194e-22
-1.022449419e-22
-3.492424308e-22
-9.225086725e-23
-3.079940037e-22
-8.316556539e-23
-2.708428212e-22
-7.495694818e-23
-2.373691572e-22
-6.758493915e-23
-2.071763095e-22
-6.100483326e-23
-1.798914442e-22
-5.516993344e-23
-1.551654515e-22
-5.003358265e-23
-1.326720562e-22
-4.5550702e-23
-1.121063802e-22
-4.167893315e-23
-9.318310923e-23
-3.837947159e-23
-7.56343856e-23
-3.561766627e-23
-5.920753081e-23
-3.336345205e-23
-4.366274105e-23
-3.159167069e-23
-2.877115293e-23
-3.028228757e-23
-1.431491584e-23
-2.942021279e-23
-2.899267367e-23
-2.356877457e-39
-9.137367339e-40
-9.708863844e-38
-7.098268229e-38
-2.431932482e-35
-6.221587084e-36
-3.570229567e-32
-6.652461977e-33
-8.443469648e-30
-3.597694763e-30
1.330862732e-27
-1.897962989e-27
2.099589482e-24
-1.142336138e-23
-1.374226269e-17
-5.119151781e-20
-2.938483814e-21
-1.371280594e-24
-2.911546342e-21
-7.654157311e-23
-2.858985013e-21
-1.493989381e-22
-2.782817342e-21
-2.168768904e-22
-2.685826173e-21
-2.768657865e-22
-2.571340435e-21
-3.27818416e-22
-2.442993072e-21
-3.688124403e-22
-2.304489298e-21
-3.995364582e-22
-2.159407698e-21
-4.202185655e-22
-2.011046719e-21
-4.315191895e-22
-1.86232033e-21
-4.344089301e-22
-1.715700037e-21
-4.300483136e-22
-1.573196277e-21
-4.196811866e-22
-1.436370299e-21
-4.045482656e-22
-1.30636741e-21
-3.85823007e-22
-1.183963386e-21
-3.645688356e-22
-1.06961727e-21
-3.417148801e-22
-9.635254504e-22
-3.180464987e-22
-8.656734518e-22
-2.942067566e-22
-7.7588318e-22
-2.707053529e-22
-6.938544296e-22
-2.479320685e-22
-6.192002077e-22
-2.261724503e-22
-5.5147597e-22
-2.056240697e-22
-4.90203186e-22
-1.864122193e-22
-4.348878398e-22
-1.686043524e-22
-3.850345467e-22
-1.522228876e-22
-3.401569699e-22
-1.372562403e-22
-2.997851874e-22
-1.236680987e-22
-2.6347059e-22
-1.114050589e-22
-2.307888191e-22
-1.00402791e-22
-2.013411775e-22
-9.059092631e-23
-1.747548691e-22
-8.189686462e-23
-1.5068236e-22
-7.424868477e-23
-1.288000942e-22
-6.757732852e-23
-1.088067461e-22
-6.181820548e-23
-9.042115419e-23
-5.691234617e-23
-7.338004609e-23
-5.280720951e-23
-5.743564965e-23
-4.945722935e-23
-4.235328269e-23
-4.682415695e-23
-2.790901419e-23
-4.487720551e-23
-1.388729068e-23
-4.359290373e-23
-4.295451684e-23
-5.931080397e-35
-4.549168278e-36
-1.425861614e-34
-1.798973002e-34
-3.40431682e-34
-5.924222847e-34
-2.265633465e-32
-1.170098829e-32
-1.131759613e-29
-4.483518052e-30
2.84261319e-28
-2.806377389e-27
9.569138672e-24
-2.09918184e-23
1.034057777e-18
-8.112212496e-20
-3.014193163e-21
-1.96595872e-24
-2.984391767e-21
-1.063483198e-22
-2.926452437e-21
-2.073496445e-22
-2.842798515e-21
-3.0054828e-22
-2.736774198e-21
-3.829134144e-22
-2.612332903e-21
-4.522887852e-22
-2.473718226e-21
-5.074619003e-22
-2.325174699e-21
-5.481204167e-22
-2.170713165e-21
-5.747261128e-22
-2.013942251e-21
-5.883416209e-22
-1.857965921e-21
-5.904421957e-22
-1.705339103e-21
-5.827373924e-22
-1.558069214e-21
-5.670185572e-22
-1.417650349e-21
-5.450397236e-22
-1.285117877e-21
-5.184330642e-22
-1.161113351e-21
-4.886558138e-22
-1.045952099e-21
-4.569633199e-22
-9.396882535e-22
-4.244021275e-22
-8.421739947e-22
-3.918172489e-22
-7.531113217e-22
-3.598685582e-22
-6.720957984e-22
-3.290522658e-22
-5.986524531e-22
-2.99724449e-22
-5.322644569e-22
-2.721245312e-22
-4.723954315e-22
-2.463973503e-22
-4.185063176e-22
-2.226130362e-22
-3.700677184e-22
-2.007843411e-22
-3.265685619e-22
-1.808813525e-22
-2.875218268e-22
-1.62843704e-22
-2.524679709e-22
-1.465905102e-22
-2.209765921e-22
-1.320282985e-22
-1.926467569e-22
-1.190572291e-22
-1.671063446e-22
-1.07575887e-22
-1.440106814e-22
-9.748490228e-23
-1.230406768e-22
-8.868963188e-23
-1.039006245e-22
-8.11020997e-23
-8.631579009e-23
-7.464236335e-23
-7.002987501e-23
-6.923944476e-23
-5.480242357e-23
-6.483193409e-23
-4.040621407e-23
-6.136834767e-23
-2.662462889e-23
-5.880729342e-23
-1.324886141e-23
-5.7117487e-23
-5.627775458e-23
-1.173421712e-31
-1.263610337e-32
-4.024878601e-31
-3.407236654e-31
-3.22117346e-31
-8.518354063e-31
-3.217955256e-31
-8.661965756e-31
-3.6040078e-30
-6.699232062e-30
5.899064883e-27
-9.399875818e-27
5.59913309e-23
-7.697373871e-23
4.645806113e-18
-3.117253515e-19
-3.119284386e-21
-2.695247474e-24
-3.085375633e-21
-1.40262418e-22
-3.01963595e-21
-2.731006903e-22
-2.925152886e-21
-3.950487879e-22
-2.806143514e-21
-5.019460664e-22
-2.667504455e-21
-5.909568812e-22
-2.514379043e-21
-6.606220514e-22
-2.351785695e-21
-7.107541462e-22
-2.184336033e-21
-7.422217316e-22
-2.016051356e-21
-7.566777529e-22
-1.850270058e-21
-7.562803623e-22
-1.689629022e-21
-7.434406145e-22
-1.536098527e-21
-7.206164542e-22
-1.391050964e-21
-6.901597945e-22
-1.255346894e-21
-6.542146285e-22
-1.129426082e-21
-6.146589809e-22
-1.013395126e-21
-5.73081362e-22
-9.071066699e-22
-5.307822591e-22
-8.10227782e-22
-4.887922574e-22
-7.222968077e-22
-4.47899947e-22
-6.427691775e-22
-4.086844471e-22
-5.71053259e-22
-3.715488933e-22
-5.065376265e-22
-3.367524971e-22
-4.486111814e-22
-3.044397648e-22
-3.966774736e-22
-2.746661735e-22
-3.501644286e-22
-2.474200961e-22
-3.085305098e-22
-2.226410787e-22
-2.712681666e-22
-2.002347658e-22
-2.379052608e-22
-1.800848565e-22
-2.080050165e-22
-1.620625133e-22
-1.811649187e-22
-1.460336335e-22
-1.570148874e-22
-1.318643646e-22
-1.352149718e-22
-1.194252059e-22
-1.154527455e-22
-1.085939882e-22
-9.744053382e-23
-9.925798241e-23
-8.091256493e-23
-9.131534186e-23
-6.562210731e-23
-8.467604721e-23
-5.13386305e-23
-7.92624866e-23
-3.784500364e-23
-7.50097758e-23
-2.493471677e-23
-7.186590077e-23
-1.240907693e-23
-6.979175912e-23
-6.87612012e-23
-1.425435138e-28
-3.485167692e-29
-3.664342475e-28
-9.859193029e-28
-2.403137057e-28
-2.499384432e-27
-1.798870144e-29
-1.89418787e-27
-1.25443258e-29
-9.822013982e-29
5.437616837e-27
-1.511426165e-26
6.075043589e-23
-1.377181391e-22
1.52465925e-18
-6.468524733e-19
-3.25772182e-21
-2.951482243e-24
-3.21818911e-21
-1.798004758e-22
-3.141563286e-21
-3.49737879e-22
-3.032036009e-21
-5.04593511e-22
-2.895147041e-21
-6.388583182e-22
-2.737168684e-21
-7.489642799e-22
-2.564515466e-21
-8.333100121e-22
-2.383261525e-21
-8.920484747e-22
-2.198802822e-21
-9.267263976e-22
-2.015665997e-21
-9.398660395e-22
-1.837442577e-21
-9.345606577e-22
-1.666816601e-21
-9.141287851e-22
-1.50565257e-21
-8.818478957e-22
-1.355115173e-21
-8.407697078e-22
-1.215799177e-21
-7.936081284e-22
-1.087854957e-21
-7.426855667e-22
-9.711011689e-22
-6.899222449e-22
-8.651206061e-22
-6.368545078e-22
-7.693383638e-22
-5.846706306e-22
-6.830833214e-22
-5.342554142e-22
-6.056349187e-22
-4.862374115e-22
-5.36257585e-22
-4.410347633e-22
-4.742251718e-22
-3.988972542e-22
-4.188375326e-22
-3.599433837e-22
-3.694310947e-22
-3.241920513e-22
-3.253849406e-22
-2.915889706e-22
-2.861236165e-22
-2.620282206e-22
-2.511176142e-22
-2.353694968e-22
-2.198822483e-22
-2.114516728e-22
-1.919754686e-22
-1.901032735e-22
-1.669950034e-22
-1.711504148e-22
-1.445751189e-22
-1.544227049e-22
-1.243831914e-22
-1.397575304e-22
-1.061162313e-22
-1.270030869e-22
-8.949744386e-23
-1.160204487e-22
-7.427288282e-23
-1.066849197e-22
-6.020822277e-23
-9.888685847e-23
-4.708566003e-23
-9.253213039e-23
-3.47009334e-23
-8.754230785e-23
-2.286044457e-23
-8.385471312e-23
-1.137845396e-23
-8.142238429e-23
-8.021403411e-23
-1.402398758e-25
-1.42057721e-25
-2.714099809e-25
-2.204194442e-24
-1.553434312e-25
-3.662620295e-24
-4.41673528e-27
-1.926800389e-24
-2.340106543e-27
-1.006113378e-25
-1.033093649e-25
-3.317111335e-26
2.723615885e-25
-1.382191296e-22
-1.007765928e-17
-8.925783604e-19
-3.435597749e-21
-3.13397294e-24
-3.388093202e-21
-2.273103738e-22
-3.29639143e-21
-4.414510175e-22
-3.166283004e-21
-6.347193868e-22
-3.005245002e-21
-7.999196096e-22
-2.82151517e-21
-9.327231609e-22
-2.62326164e-21
-1.031598294e-21
-2.417952029e-21
-1.097398483e-21
-2.211957897e-21
-1.132766504e-21
-2.010377176e-21
-1.141498236e-21
-1.817027062e-21
-1.12796766e-21
-1.634550944e-21
-1.096667112e-21
-1.46458793e-21
-1.051878337e-21
-1.307965188e-21
-9.974649827e-22
-1.164886202e-21
-9.367646359e-22
-1.035099306e-21
-8.725548471e-22
-9.180393654e-22
-8.070693004e-22
-8.129411477e-22
-7.420444315e-22
-7.189262868e-22
-6.787816433e-22
-6.350674074e-22
-6.182147398e-22
-5.604335185e-22
-5.609758839e-22
-4.941206684e-22
-5.074561721e-22
-4.352713963e-22
-4.578588931e-22
-3.830859299e-22
-4.122448531e-22
-3.368274857e-22
-3.70569959e-22
-2.958234904e-22
-3.327157102e-22
-2.594640885e-22
-2.985134643e-22
-2.271989344e-22
-2.677634039e-22
-1.985329811e-22
-2.402491011e-22
-1.730217593e-22
-2.157485002e-22
-1.502664817e-22
-1.940420331e-22
-1.299091866e-22
-1.749184801e-22
-1.116280544e-22
-1.581790838e-22
-9.513297055e-23
-1.436403332e-22
-8.01613675e-23
-1.311357543e-22
-6.647435159e-23
-1.205169756e-22
-5.385310315e-23
-1.116542806e-22
-4.209552457e-23
-1.044368118e-22
-3.101310421e-23
-9.877255467e-23
-2.042795954e-23
-9.458820161e-23
-1.017002578e-23
-9.182897242e-23
-9.045844944e-23
-3.697134228e-23
-5.69207539e-23
-3.274874504e-23
-2.692307284e-22
-1.4228832e-23
-2.631674194e-22
-8.304271044e-25
-1.113308182e-22
-1.416278084e-26
-1.119423795e-23
1.216387981e-26
-8.713022682e-25
9.262576134e-23
-2.313147298e-22
-1.176359366e-18
-9.788663571e-19
-3.660913402e-21
-3.358852871e-24
-3.602188617e-21
-2.860405114e-22
-3.489623892e-21
-5.540271131e-22
-3.331461615e-21
-7.928991178e-22
-3.138040895e-21
-9.933636239e-22
-2.920394548e-21
-1.150398564e-21
-2.689075004e-21
-1.262952598e-21
-2.453338985e-21
-1.333174909e-21
-2.220711454e-21
-1.365440021e-21
-1.996869019e-21
-1.365392158e-21
-1.785747885e-21
-1.339145697e-21
-1.589781455e-21
-1.292695767e-21
-1.410191237e-21
-1.231535996e-21
-1.247278708e-21
-1.160450062e-21
-1.100687566e-21
-1.083433317e-21
-9.696224303e-22
-1.003702386e-21
-8.530209957e-22
-9.237578693e-22
-7.496830233e-22
-8.454741301e-22
-6.58362541e-22
-7.701982983e-22
-5.778305055e-22
-6.988472429e-22
-5.069148228e-22
-6.319961722e-22
-4.445236941e-22
-5.69955882e-22
-3.896571371e-22
-5.128378397e-22
-3.414104448e-22
-4.606075717e-22
-2.989723955e-22
-4.131274955e-22
-2.616202474e-22
-3.701906266e-22
-2.287129479e-22
-3.3154663e-22
-1.996835233e-22
-2.96921606e-22
-1.740312841e-22
-2.660328399e-22
-1.513142378e-22
-2.385995762e-22
-1.311419365e-22
-2.143506998e-22
-1.131688742e-22
-1.930300472e-22
-9.708847268e-23
-1.743999311e-22
-8.262765088e-23
-1.582433419e-22
-6.954194121e-23
-1.443651905e-22
-5.761110317e-23
-1.325928773e-22
-4.663517493e-23
-1.227764058e-22
-3.643090144e-23
-1.147882107e-22
-2.682847766e-23
-1.085228269e-22
-1.766854853e-23
-1.038964961e-22
-8.79941204e-24
-1.008467844e-22
-9.933226146e-23
-8.953486044e-22
-1.186512063e-21
-5.9815839e-22
-2.285104023e-21
-2.246011892e-22
-1.589780943e-21
-1.760172514e-23
-7.382886129e-22
4.35801126e-25
-1.337745006e-22
4.770067348e-25
-1.374853177e-23
4.500357281e-22
-6.878060167e-22
2.72812363e-18
-9.466585397e-19
-3.944775183e-21
-4.129893717e-24
-3.870113316e-21
-3.607077307e-22
-3.728449522e-21
-6.95702281e-22
-3.531901041e-21
-9.894650584e-22
-3.295070565e-21
-1.2302174e-21
-3.032959286e-21
-1.412538905e-21
-2.759319128e-21
-1.536627524e-21
-2.485632253e-21
-1.6069022e-21
-2.2206941e-21
-1.63042417e-21
-1.970652478e-21
-1.615485279e-21
-1.739325376e-21
-1.570529714e-21
-1.528645564e-21
-1.503437817e-21
-1.33912525e-21
-1.421123768e-21
-1.170278025e-21
-1.329369853e-21
-1.020969122e-21
-1.232819776e-21
-8.896872737e-22
-1.135066656e-21
-7.747439847e-22
-1.038788311e-21
-6.744117714e-22
-9.458980887e-22
-5.870143596e-22
-8.576919026e-22
-5.109809883e-22
-7.749811022e-22
-4.448750905e-22
-6.982066965e-22
-3.874054809e-22
-6.275340942e-22
-3.374261831e-22
-5.629295491e-22
-2.939293361e-22
-5.042204673e-22
-2.560342773e-22
-4.511420641e-22
-2.229748839e-22
-4.033728112e-22
-1.940865127e-22
-3.605608904e-22
-1.687933557e-22
-3.223435639e-22
-1.46596667e-22
-2.883610517e-22
-1.270640826e-22
-2.582662139e-22
-1.098200973e-22
-2.317310741e-22
-9.453767471e-23
-2.08450998e-22
-8.093090953e-23
-1.881471655e-22
-6.874863781e-23
-1.705678237e-22
-5.776887906e-23
-1.554886988e-22
-4.779399479e-23
-1.427128477e-22
-3.864645338e-23
-1.320701663e-22
-3.016509945e-23
-1.234167119e-22
-2.220183513e-23
-1.166339611e-22
-1.461863002e-23
-1.116280876e-22
-7.284785905e-24
-1.083293249e-22
-1.066914574e-22
-4.524963153e-21
-3.222656462e-21
-3.333700623e-21
-4.449903075e-21
-1.618821753e-21
-3.954561733e-21
-3.510964185e-22
-2.866258884e-21
-1.077897796e-23
-9.846523795e-22
2.418289745e-24
-1.187344021e-22
-4.875423101e-23
-6.909848789e-22
-1.463672946e-18
-7.400119835e-19
-4.303066934e-21
-7.515164883e-24
-4.205025405e-21
-4.587546139e-22
-4.022153518e-21
-8.785855437e-22
-3.772626301e-21
-1.23900974e-21
-3.47739302e-21
-1.525473986e-21
-3.157069923e-21
-1.73289107e-21
-2.829629018e-21
-1.864103206e-21
-2.50919559e-21
-1.927376053e-21
-2.205797347e-21
-1.933868419e-21
-1.925736244e-21
-1.895597892e-21
-1.672267993e-21
-1.824054893e-21
-1.446360382e-21
-1.729407679e-21
-1.247394522e-21
-1.6201571e-21
-1.07374589e-21
-1.503091065e-21
-9.232293745e-22
-1.383413864e-21
-7.934184856e-22
-1.264959982e-21
-6.818602359e-22
-1.150433731e-21
-5.862096391e-22
-1.041640449e-21
-5.043057636e-22
-9.396919892e-22
-4.342074105e-22
-8.451799624e-22
-3.742023215e-22
-7.583164316e-22
-3.228000754e-22
-6.79044963e-22
-2.787157804e-22
-6.071262761e-22
-2.408493284e-22
-5.422029888e-22
-2.082632684e-22
-4.838476551e-22
-1.801611526e-22
-4.315977397e-22
-1.558673903e-22
-3.849805637e-22
-1.348091105e-22
-3.435306666e-22
-1.165001919e-22
-3.068015154e-22
-1.005274219e-22
-2.743730593e-22
-8.653862929e-23
-2.458562779e-22
-7.423258527e-23
-2.208955924e-22
-6.335044809e-23
-1.991697938e-22
-5.366852965e-23
-1.803919741e-22
-4.499217874e-23
-1.643088208e-22
-3.715059466e-23
-1.506995394e-22
-2.999240729e-23
-1.393745938e-22
-2.338188024e-23
-1.30174407e-22
-1.719561326e-23
-1.229681184e-22
-1.131963653e-23
-1.176524709e-22
-5.646803477e-24
-1.141508742e-22
-1.124126804e-22
-9.901528102e-21
-3.90856915e-21
-8.25250507e-21
-6.337314133e-21
-5.983011825e-21
-7.982822312e-21
-2.97893109e-21
-9.013175649e-21
-3.985955608e-22
-7.128332196e-21
-6.211655042e-23
-2.400910998e-21
-5.610266667e-22
-1.216526831e-21
-1.098296812e-17
-1.303439586e-18
-4.758514775e-21
-1.499475566e-23
-4.624748716e-21
-5.925260273e-22
-4.382505091e-21
-1.120840546e-21
-4.05906511e-21
-1.562467188e-21
-3.684824226e-21
-1.899738181e-21
-3.288323256e-21
-2.129421116e-21
-2.892957518e-21
-2.259503727e-21
-2.515747915e-21
-2.304626089e-21
-2.167584163e-21
-2.282078186e-21
-1.854244e-21
-2.208989574e-21
-1.577663218e-21
-2.100692615e-21
-1.337143695e-21
-1.969989465e-21
-1.130354476e-21
-1.827013803e-21
-9.540878394e-22
-1.679430297e-21
-8.04789e-22
-1.53279029e-21
-6.789012533e-22
-1.390930181e-21
-5.730725098e-22
-1.25634966e-21
-4.84264137e-22
-1.130540602e-21
-4.097947987e-22
-1.014257556e-21
-3.473436003e-22
-9.077316858e-22
-2.949296602e-22
-8.108350362e-22
-2.508796056e-22
-7.23203659e-22
-2.137903601e-22
-6.443279727e-22
-1.824916862e-22
-5.736177517e-22
-1.560109937e-22
-5.104478984e-22
-1.335416531e-22
-4.54189913e-22
-1.144152641e-22
-4.04232884e-22
-9.807786229e-23
-3.599969117e-22
-8.406979374e-23
-3.209411496e-22
-7.200886536e-23
-2.865680836e-22
-6.15763402e-23
-2.564252348e-22
-5.250535426e-23
-2.301051494e-22
-4.457136364e-23
-2.072442961e-22
-3.758427408e-23
-1.875213159e-22
-3.138195098e-23
-1.706549353e-22
-2.582485236e-23
-1.564017656e-22
-2.079156712e-23
-1.445541389e-22
-1.617507618e-23
-1.349380854e-22
-1.18795833e-23
-1.274115209e-22
-7.817786942e-24
-1.218626928e-22
-3.908483839e-24
-1.182089124e-22
-1.163955925e-22
-1.285790747e-20
-3.6646194e-21
-1.293742931e-20
-7.038627983e-21
-1.220791261e-20
-1.020786364e-20
-1.072585359e-20
-1.340819889e-20
-6.382731543e-21
-1.786344261e-20
-1.462600753e-21
-1.750065986e-20
9.320963541e-20
-9.79244453e-20
5.705613741e-19
-3.75611253e-17
-5.34356416e-21
-5.347537444e-23
-5.152909363e-21
-7.831861811e-22
-4.824043582e-21
-1.449717708e-21
-4.396319884e-21
-1.990208355e-21
-3.914546918e-21
-2.381534462e-21
-3.418478847e-21
-2.625518267e-21
-2.938166121e-21
-2.739851244e-21
-2.493285485e-21
-2.749547166e-21
-2.094572077e-21
-2.680837619e-21
-1.746010951e-21
-2.557602229e-21
-1.447010666e-21
-2.399749849e-21
-1.194206309e-21
-2.222856096e-21
-9.827986953e-22
-2.038488913e-21
-8.074669968e-22
-1.854834603e-21
-6.629413799e-22
-1.677393507e-21
-5.44328188e-22
-1.50962584e-21
-4.472672243e-22
-1.353497825e-21
-3.679822498e-22
-1.209917372e-21
-3.032682933e-22
-1.079067756e-21
-2.504451363e-22
-9.606553842e-22
-2.072957408e-22
-8.54089113e-22
-1.720009739e-22
-7.586070846e-22
-1.430770192e-22
-6.733643962e-22
-1.193186957e-22
-5.974921822e-22
-9.974995866e-23
-5.301362045e-22
-8.358172917e-23
-4.704809938e-22
-7.01765917e-23
-4.177639715e-22
-5.901961643e-23
-3.712827491e-22
-4.969446876e-23
-3.303978819e-22
-4.186398231e-23
-2.945326851e-22
-3.525443975e-23
-2.631712282e-22
-2.96428966e-23
-2.358552825e-22
-2.48469791e-23
-2.121807443e-22
-2.071667824e-23
-1.917938879e-22
-1.712774443e-23
-1.743876791e-22
-1.397635715e-23
-1.596982989e-22
-1.117480419e-23
-1.475019701e-22
-8.647953728e-24
-1.376121415e-22
-6.330342358e-24
-1.298770598e-22
-4.16373395e-24
-1.241777445e-22
-2.095028526e-24
-1.204263705e-22
-1.185650575e-22
-1.054715388e-20
-2.544924688e-21
-1.197822882e-20
-5.971755164e-21
-1.294698808e-20
-9.776910383e-21
-1.374086972e-20
-1.369099851e-20
-1.780917984e-20
-1.772715582e-20
6.20594777e-20
-1.005826073e-19
1.306186374e-17
-1.310105295e-17
-2.222614478e-18
-8.145159425e-16
-6.083834873e-21
-1.228367347e-22
-5.819121242e-21
-1.047905169e-21
-5.364418607e-21
-1.904431726e-21
-4.787654858e-21
-2.566989578e-21
-4.158618815e-21
-3.010593824e-21
-3.532936534e-21
-3.251229633e-21
-2.947992903e-21
-3.324829672e-21
-2.42469511e-21
-3.272885407e-21
-1.971436071e-21
-3.134142689e-21
-1.58823634e-21
-2.940853498e-21
-1.270174683e-21
-2.717868465e-21
-1.009880015e-21
-2.483213048e-21
-7.99171863e-22
-2.249264573e-21
-6.300431918e-22
-2.024035893e-21
-4.951835413e-22
-1.81233077e-21
-3.882047148e-22
-1.616687146e-21
-3.03687693e-22
-1.438102061e-21
-2.371311738e-22
-1.2765657e-21
-1.848529735e-22
-1.131442215e-21
-1.438750639e-22
-1.00173385e-21
-1.118094959e-22
-8.862593775e-22
-8.675394875e-23
-7.837713062e-22
-6.720054109e-23
-6.930302887e-22
-5.195864713e-23
-6.128501995e-22
-4.009094097e-23
-5.421234963e-22
-3.086120032e-23
-4.798336025e-22
-2.369217681e-23
-4.25058962e-22
-1.813187016e-23
-3.769719349e-22
-1.382669607e-23
-3.348346579e-22
-1.050023761e-23
-2.979932758e-22
-7.936476418e-24
-2.658714575e-22
-5.966592336e-24
-2.379637738e-22
-4.458589741e-24
-2.138292947e-22
-3.309152229e-24
-1.930856137e-22
-2.437246959e-24
-1.754034114e-22
-1.779096945e-24
-1.605016118e-22
-1.28421786e-24
-1.481431441e-22
-9.122779619e-25
-1.381313035e-22
-6.305886357e-25
-1.303066929e-22
-4.120709044e-25
-1.245447218e-22
-2.335720344e-25
-1.207536381e-22
-1.188730732e-22
-3.526092499e-21
-7.288778695e-22
-5.838940838e-21
-3.984876657e-21
-8.183084257e-21
-7.854294287e-21
-1.046892891e-20
-1.163874167e-20
-1.250841525e-20
-1.530982967e-20
8.613075662e-21
-1.212787482e-19
6.756047826e-18
-1.985116353e-17
-1.204548627e-17
-1.550245509e-15
-7.037129015e-21
-9.477400087e-23
-6.675126796e-21
-1.409912746e-21
-6.0268508e-21
-2.552719106e-21
-5.231338321e-21
-3.362519535e-21
-4.39943361e-21
-3.842521859e-21
-3.606743482e-21
-4.043948851e-21
-2.896241968e-21
-4.035365988e-21
-2.286113381e-21
-3.883054448e-21
-1.778270961e-21
-3.642031148e-21
-1.365341331e-21
-3.353834675e-21
-1.035581095e-21
-3.047685669e-21
-7.759715765e-22
-2.742884859e-21
-5.739671922e-22
-2.451336474e-21
-4.183507601e-22
-2.179724954e-21
-2.995449103e-22
-1.931214243e-21
-2.096195912e-22
-1.706694957e-21
-1.421481652e-22
-1.505660713e-21
-9.200271274e-23
-1.326802975e-21
-5.513871419e-23
-1.168402486e-21
-2.839436531e-23
-1.028578769e-21
-9.315238499e-24
-9.054432147e-22
3.992989794e-24
-7.97188223e-22
1.298507717e-23
-7.021348752e-22
1.877313114e-23
-6.187543913e-22
2.220355376e-23
-5.456735194e-22
2.391757226e-23
-4.81670504e-22
2.439853421e-23
-4.256659061e-22
2.400867144e-23
-3.767109667e-22
2.301756351e-23
-3.339751672e-22
2.162410423e-23
-2.967339642e-22
1.99734088e-23
-2.643572456e-22
1.816979606e-23
-2.362987837e-22
1.62867356e-23
-2.120867974e-22
1.437445344e-23
-1.91315635e-22
1.246573625e-23
-1.736385364e-22
1.05803529e-23
-1.587614065e-22
8.72841862e-24
-1.464375197e-22
6.912954679e-24
-1.364630765e-22
5.131840614e-24
-1.286735374e-22
3.37931418e-24
-1.229406694e-22
1.647142412e-24
-1.191702496e-22
-1.173003808e-22
3.780703939e-21
1.251803292e-22
1.630015044e-21
-1.6864168e-21
-1.391417233e-21
-4.877070024e-21
-4.705317806e-21
-8.37729426e-21
-8.826759167e-21
-1.11065479e-20
-8.708057255e-20
-4.26989998e-20
-1.494210597e-17
-4.981545429e-18
7.507886747e-25
-3.815512298e-16
-8.444463963e-21
-3.328827181e-22
-7.817756674e-21
-2.036625393e-21
-6.836666838e-21
-3.533820328e-21
-5.711595482e-21
-4.48760837e-21
-4.601202348e-21
-4.952938322e-21
-3.598491264e-21
-5.046689028e-21
-2.744205029e-21
-4.889687029e-21
-2.045297489e-21
-4.582002448e-21
-1.490220437e-21
-4.197154245e-21
-1.059288753e-21
-3.784817911e-21
-7.308397779e-22
-3.376191618e-21
-4.844566106e-22
-2.989330328e-21
-3.023715037e-22
-2.633489106e-21
-1.6984452e-22
-2.312324576e-21
-7.502311248e-23
-2.026113283e-21
-8.578826025e-24
-1.773221744e-21
3.671814964e-23
-1.551044926e-21
6.640716015e-23
-1.356583818e-21
8.469442913e-23
-1.186786037e-21
9.475021172e-23
-1.038735133e-21
9.894813454e-23
-9.097458598e-22
9.905396983e-23
-7.97402759e-22
9.637241713e-23
-6.995658342e-22
9.186010291e-23
-6.143582277e-22
8.621195856e-23
-5.401449884e-22
7.992690723e-23
-4.755083488e-22
7.335762037e-23
-4.192226146e-22
6.674808854e-23
-3.702303426e-22
6.026191256e-23
-3.276206217e-22
5.400355016e-23
-2.906097629e-22
4.803422629e-23
-2.585244187e-22
4.238380776e-23
-2.307870012e-22
3.705962941e-23
-2.069031956e-22
3.205302048e-23
-1.864513429e-22
2.734409807e-23
-1.690734694e-22
2.290525724e-23
-1.544677567e-22
1.870368338e-23
-1.423822687e-22
1.470313406e-23
-1.32609777e-22
1.086517903e-23
-1.249835536e-22
7.150043093e-24
-1.193740202e-22
3.517164338e-24
-1.156861665e-22
-1.138576717e-22
3.458570855e-21
8.076446887e-24
6.098349928e-21
-2.255103196e-22
3.757181703e-21
-2.18355683e-21
9.003458017e-23
-4.392320955e-21
-4.492313036e-21
-6.466029385e-21
-2.909561108e-20
-1.801826867e-20
-1.967735984e-18
-3.040855407e-18
3.170442029e-25
-2.819232985e-16
-1.038001843e-20
-7.357389019e-22
-9.314840114e-21
-3.101809066e-21
-7.790727714e-21
-5.057944116e-21
-6.17750736e-21
-6.100846206e-21
-4.695555571e-21
-6.434913442e-21
-3.441988684e-21
-6.300285013e-21
-2.436887556e-21
-5.894822969e-21
-1.660697435e-21
-5.358233034e-21
-1.078040006e-21
-4.779857724e-21
-6.507527214e-22
-4.212156754e-21
-3.440247834e-22
-3.682976536e-21
-1.28633707e-22
-3.204783712e-21
1.8791604e-23
-2.780981949e-21
1.163749014e-22
-2.409980519e-21
1.778814158e-22
-2.087697438e-21
2.136129554e-22
-1.809035793e-21
2.311944909e-22
-1.568713707e-21
2.362194981e-22
-1.361700667e-21
2.32758739e-22
-1.183421571e-21
2.237515434e-22
-1.029828528e-21
2.113019196e-22
-8.974009683e-22
1.969002654e-22
-7.831098159e-22
1.815881868e-22
-6.843662777e-22
1.660804211e-22
-5.989666234e-22
1.508547181e-22
-5.250389097e-22
1.362179214e-22
-4.609944592e-22
1.223544406e-22
-4.054851402e-22
1.093617224e-22
-3.573665434e-22
9.727613352e-23
-3.156666746e-22
8.609177834e-23
-2.7955958e-22
7.577411189e-23
-2.483432604e-22
6.626971872e-23
-2.214212553e-22
5.751326957e-23
-1.982873342e-22
4.943240101e-23
-1.785128023e-22
4.195106864e-23
-1.617360034e-22
3.499177999e-23
-1.476536701e-22
2.847700757e-23
-1.3601383e-22
2.23300044e-23
-1.266100343e-22
1.647518686e-23
-1.19276718e-22
1.083820791e-23
-1.138855385e-22
5.345813197e-24
-1.10342578e-22
-1.08586318e-22
2.334075347e-22
-1.378172462e-26
2.681783909e-21
-1.222604769e-23
5.120232652e-21
-2.328074784e-22
3.151700766e-21
-1.307413904e-21
-7.765921194e-22
-2.27354083e-21
-1.492645811e-20
-3.745734118e-21
-1.144211439e-18
-1.91076877e-18
1.47370569e-25
-2.507939699e-16
-1.321668834e-20
-1.489625959e-21
-1.127137532e-20
-5.047127448e-21
-8.834646057e-21
-7.494684773e-21
-6.512771245e-21
-8.422738502e-21
-4.561914466e-21
-8.385793554e-21
-3.037224308e-21
-7.825004273e-21
-1.900744028e-21
-7.031338064e-21
-1.08258437e-21
-6.17643316e-21
-5.104783175e-22
-5.352009831e-21
-1.216349221e-22
-4.601051712e-21
1.341509328e-22
-3.938819377e-21
2.951759265e-22
-3.365871019e-21
3.898133712e-22
-2.875686931e-21
4.386834048e-22
-2.458923204e-21
4.565694178e-22
-2.105661098e-21
4.539601508e-22
-1.806509042e-21
4.382303696e-22
-1.553071178e-21
4.145188031e-22
-1.33808095e-21
3.863693593e-22
-1.155368427e-21
3.561942272e-22
-9.997539951e-22
3.25605998e-22
-8.669174798e-22
2.956548073e-22
-7.532673446e-22
2.669971881e-22
-6.558211892e-22
2.400160674e-22
-5.721016727e-22
2.149059002e-22
-5.000483755e-22
1.917329547e-22
-4.379444297e-22
1.704778909e-22
-3.843560917e-22
1.510657154e-22
-3.380832957e-22
1.333867333e-22
-2.981193433e-22
1.173110762e-22
-2.636181042e-22
1.026986446e-22
-2.338673459e-22
8.940578038e-23
-2.082670473e-22
7.728960734e-23
-1.863117578e-22
6.621071409e-23
-1.675762458e-22
5.603466009e-23
-1.517038247e-22
4.663265097e-23
-1.383968718e-22
3.788162988e-23
-1.274091512e-22
2.96639616e-23
-1.185396351e-22
2.186683532e-23
-1.11627582e-22
1.438147557e-23
-1.065486843e-22
7.102225169e-24
-1.032121419e-22
-1.015585552e-22
4.303057625e-24
-8.385821332e-29
2.602383507e-22
-3.837052246e-25
1.257483654e-21
-7.01294737e-24
2.438543779e-21
-5.937195223e-23
1.325165815e-21
-1.213049378e-22
-1.683541304e-21
-5.569286557e-22
-9.382595477e-19
-9.740146793e-19
-9.503032117e-18
-2.424247929e-16
-1.75883505e-20
-3.65047069e-21
-1.372142861e-20
-8.914054698e-21
-9.765461626e-21
-1.145066315e-20
-6.478027491e-21
-1.171019012e-20
-4.002578593e-21
-1.086126579e-20
-2.244416069e-21
-9.5831959e-21
-1.046297903e-21
-8.229491048e-21
-2.583762289e-22
-6.964395307e-21
2.404032438e-22
-5.850835362e-21
5.405944087e-22
-4.901294444e-21
7.071317183e-22
-4.105413675e-21
7.854065982e-22
-3.444208216e-21
8.066265858e-22
-2.896974461e-21
7.919923845e-22
-2.444361659e-21
7.557633857e-22
-2.069509751e-21
7.074342939e-22
-1.758262472e-21
6.532514042e-22
-1.498975546e-21
5.972571884e-22
-1.282178589e-21
5.420053634e-22
-1.100212908e-21
4.890486766e-22
-9.468979133e-22
4.392710257e-22
-8.172445756e-22
3.931133333e-22
-7.072183778e-22
3.507269933e-22
-6.135473863e-22