/*--------------------------------*- C++ -*----------------------------------*\
  =========                 |
  \\      /  F ield         | OpenFOAM: The Open Source CFD Toolbox
   \\    /   O peration     | Website:  https://openfoam.org
    \\  /    A nd           | Version:  6
     \\/     M anipulation  |
\*---------------------------------------------------------------------------*/
FoamFile
{
    version     2.0;
    format      ascii;
    class       volVectorField;
    location    "0.04";
    object      gradT;
}
// * * * * * * * * * * * * * * * * * * * * * * * * * * * * * * * * * * * * * //

dimensions      [0 -1 0 1 0 0 0];

internalField   nonuniform List<vector> 
2500
(
(0 -1.32337828 317.7534443)
(0 -5.192176889 312.3478493)
(0 -11.08675589 296.0870682)
(0 -18.12844344 265.3675034)
(0 -25.32659483 218.6664118)
(0 -31.62736857 156.811258)
(0 -35.99146922 82.91951571)
(0 -19.24434632 2.309596634)
(0 -0.5203832011 0.3171504431)
(0 -0.06924986282 0.07360860354)
(0 -0.01591544984 0.01673064804)
(0 -0.003551750085 0.003802129871)
(0 -0.0007812845558 0.0008878231835)
(0 -0.0001735268401 0.000217167201)
(0 -3.988184046e-05 5.542164808e-05)
(0 -9.576272157e-06 1.437923131e-05)
(0 -2.367833547e-06 3.675464188e-06)
(0 -5.845468484e-07 9.036429826e-07)
(0 -1.401368954e-07 2.130758436e-07)
(0 -3.331662926e-08 4.86102797e-08)
(0 -8.235042543e-09 1.087025616e-08)
(0 -2.399926684e-09 1.97641021e-09)
(0 -7.529181753e-10 -2.823443158e-10)
(0 -1.223492035e-09 -7.529181753e-10)
(0 7.058607894e-10 -2.44698407e-09)
(0 9.411477192e-11 -4.705738596e-10)
(0 -1.74112328e-09 -2.964615315e-09)
(0 -5.646886315e-10 -2.917557929e-09)
(0 -5.646886315e-10 -3.576361333e-09)
(0 0 -3.105787473e-09)
(0 -4.705738596e-11 -3.058730087e-09)
(0 1.176434649e-09 -3.105787473e-09)
(0 1.505836351e-09 -1.788180666e-09)
(0 -1.223492035e-09 -1.458778965e-09)
(0 -1.176434649e-09 -4.611623824e-09)
(0 1.835238052e-09 -3.199902245e-09)
(0 1.176434649e-09 -9.882051051e-10)
(0 -3.764590877e-10 -1.411721579e-09)
(0 9.411477192e-11 2.352869298e-10)
(0 -4.705738596e-11 -1.364664193e-09)
(0 0 -7.058607894e-10)
(0 -1.176434649e-09 -1.364664193e-09)
(0 -1.270549421e-09 -2.588156228e-09)
(0 1.223492035e-09 -2.635213614e-09)
(0 0 -1.364664193e-09)
(0 0 -2.635213614e-09)
(0 4.705738596e-11 -1.364664193e-09)
(0 -9.411477192e-11 -2.588156228e-09)
(0 2.21169714e-09 -1.411721579e-09)
(0 -8.470329473e-10 -2.823443158e-10)
(0 -4.082216716 405.9055893)
(0 -16.4741992 400.7430574)
(0 -35.89358993 381.6079744)
(0 -59.29221293 343.1500341)
(0 -83.22965061 283.2469538)
(0 -104.1195275 203.165768)
(0 -118.5101921 107.3108436)
(0 -63.35801894 3.004519122)
(0 -1.71560483 0.4268457458)
(0 -0.2311699324 0.1033406155)
(0 -0.05389102383 0.02512153533)
(0 -0.01229107463 0.006340782435)
(0 -0.00280367802 0.001703107924)
(0 -0.0006588747895 0.0004832607661)
(0 -0.0001629061763 0.0001398015174)
(0 -4.216986468e-05 3.964387126e-05)
(0 -1.110775478e-05 1.072437826e-05)
(0 -2.877841496e-06 2.727540205e-06)
(0 -7.148487501e-07 6.467096552e-07)
(0 -1.689360156e-07 1.429132812e-07)
(0 -3.835176956e-08 2.931675145e-08)
(0 -8.84678856e-09 5.223369841e-09)
(0 -1.97641021e-09 -2.352869298e-10)
(0 -9.411477192e-10 -6.588034034e-10)
(0 -4.235164736e-10 1.270549421e-09)
(0 -6.588034034e-10 -1.647008509e-09)
(0 -6.588034034e-10 -1.364664193e-09)
(0 -9.411477192e-11 -1.411721579e-09)
(0 4.235164736e-10 -7.058607894e-10)
(0 5.176312455e-10 -1.411721579e-10)
(0 4.705738596e-11 -2.352869298e-10)
(0 9.411477192e-11 4.705738596e-11)
(0 1.882295438e-10 -2.023467596e-09)
(0 -1.694065895e-09 -2.823443158e-09)
(0 -5.176312455e-10 -1.317606807e-09)
(0 1.788180666e-09 -1.647008509e-09)
(0 6.117460175e-10 -2.964615315e-09)
(0 1.552893737e-09 -9.411477192e-10)
(0 0 -1.74112328e-09)
(0 -8.940903332e-10 -1.270549421e-09)
(0 4.705738596e-11 -1.223492035e-09)
(0 -7.529181753e-10 -1.317606807e-09)
(0 0 -9.411477192e-11)
(0 0 -4.705738596e-11)
(0 0 -1.317606807e-09)
(0 0 -4.705738596e-11)
(0 0 -1.176434649e-09)
(0 0 -9.411477192e-11)
(0 9.411477192e-11 -1.270549421e-09)
(0 2.588156228e-09 -2.541098842e-09)
(0 -6.485910176 600.6626632)
(0 -29.48979181 596.9394024)
(0 -68.67977921 571.8707624)
(0 -116.489464 516.2097292)
(0 -165.3108609 426.6752013)
(0 -207.5634788 305.8028533)
(0 -236.1527181 161.1011615)
(0 -126.1283442 4.549558149)
(0 -3.421561708 0.6824294108)
(0 -0.4709740733 0.1775150872)
(0 -0.1129152829 0.04828115921)
(0 -0.02697017759 0.01418878457)
(0 -0.006638806271 0.004472315609)
(0 -0.0017368332 0.001444957834)
(0 -0.0004834986883 0.0004558130399)
(0 -0.0001386534583 0.0001360552318)
(0 -3.928411754e-05 3.786797257e-05)
(0 -1.066226251e-05 9.783136426e-06)
(0 -2.724810877e-06 2.344822485e-06)
(0 -6.506154183e-07 5.229016728e-07)
(0 -1.459249539e-07 1.086555042e-07)
(0 -3.190490768e-08 2.084642198e-08)
(0 -6.63509142e-09 3.388131789e-09)
(0 2.823443158e-10 1.599951123e-09)
(0 -2.823443158e-10 2.21169714e-09)
(0 -2.541098842e-09 2.258754526e-09)
(0 -1.505836351e-09 1.882295438e-10)
(0 9.411477192e-11 3.764590877e-10)
(0 6.588034034e-10 -2.352869298e-10)
(0 4.705738596e-10 -1.882295438e-10)
(0 9.411477192e-11 8.940903332e-10)
(0 -4.705738596e-10 6.117460175e-10)
(0 -1.458778965e-09 -2.823443158e-10)
(0 -4.705738596e-10 -1.647008509e-09)
(0 0 2.352869298e-10)
(0 9.411477192e-11 -1.317606807e-09)
(0 1.929352824e-09 -1.647008509e-09)
(0 8.470329473e-10 -2.823443158e-10)
(0 -2.352869298e-10 -1.505836351e-09)
(0 4.235164736e-10 1.788180666e-09)
(0 -4.705738596e-11 8.470329473e-10)
(0 0 1.599951123e-09)
(0 0 9.411477192e-11)
(0 0 0)
(0 0 0)
(0 1.411721579e-10 0)
(0 0 9.411477192e-11)
(0 -9.411477192e-11 1.176434649e-09)
(0 -2.823443158e-10 1.599951123e-09)
(0 2.917557929e-09 2.494041456e-09)
(0 -7.805477509 936.6600305)
(0 -45.26609995 936.5742335)
(0 -116.6232631 901.4034731)
(0 -204.487774 815.4146018)
(0 -293.6365265 673.6765801)
(0 -369.6935674 481.6571801)
(0 -419.7634873 252.7861938)
(0 -223.776751 7.237371199)
(0 -6.087647891 1.17295697)
(0 -0.8653181839 0.338767631)
(0 -0.2172173265 0.1068825893)
(0 -0.05609991823 0.03690197347)
(0 -0.01554750489 0.01324143699)
(0 -0.004675377312 0.004648297009)
(0 -0.001471808778 0.001535997029)
(0 -0.000460114885 0.0004697149211)
(0 -0.0001373798973 0.0001323128521)
(0 -3.840094452e-05 3.436953827e-05)
(0 -9.975083503e-06 8.261535851e-06)
(0 -2.405102996e-06 1.844037784e-06)
(0 -5.404540777e-07 3.833765234e-07)
(0 -1.141141609e-07 7.444478459e-08)
(0 -2.126993845e-08 1.505836351e-08)
(0 -2.023467596e-09 3.999877806e-09)
(0 2.352869298e-10 6.588034034e-10)
(0 -2.682271e-09 1.97641021e-09)
(0 -2.588156228e-09 1.505836351e-09)
(0 -4.705738596e-10 1.082319877e-09)
(0 -1.411721579e-10 -4.235164736e-10)
(0 1.647008509e-09 -5.176312455e-10)
(0 8.940903332e-10 9.411477192e-10)
(0 -1.176434649e-09 8.940903332e-10)
(0 -2.070524982e-09 1.929352824e-09)
(0 -1.176434649e-09 0)
(0 -1.882295438e-10 -1.835238052e-09)
(0 0 0)
(0 1.647008509e-09 -3.294017017e-10)
(0 1.694065895e-09 -8.940903332e-10)
(0 2.070524982e-09 -7.058607894e-10)
(0 1.505836351e-09 -2.823443158e-10)
(0 -2.352869298e-10 4.705738596e-10)
(0 -1.505836351e-09 4.705738596e-11)
(0 -1.599951123e-09 -4.705738596e-11)
(0 -1.411721579e-10 9.411477192e-11)
(0 0 4.705738596e-11)
(0 1.411721579e-10 9.411477192e-11)
(0 1.129377263e-09 -4.705738596e-11)
(0 1.505836351e-09 -4.705738596e-11)
(0 1.505836351e-09 -4.705738596e-11)
(0 -1.552893737e-09 1.505836351e-09)
(0 -6.57170715 1461.921452)
(0 -64.74634924 1469.675679)
(0 -189.839411 1418.915702)
(0 -344.216357 1284.636744)
(0 -499.0682826 1059.32136)
(0 -628.4538651 754.5881503)
(0 -710.572527 394.2854018)
(0 -377.741581 11.55645486)
(0 -10.32016528 2.101380917)
(0 -1.537048454 0.7024074285)
(0 -0.4147809404 0.2626274974)
(0 -0.1206113298 0.1043711088)
(0 -0.03889248268 0.04091672508)
(0 -0.01344227325 0.01505840468)
(0 -0.00466208073 0.005092286364)
(0 -0.001542337636 0.001573727077)
(0 -0.0004746295945 0.00044516113)
(0 -0.0001347135317 0.000115749311)
(0 -3.525031136e-05 2.78055035e-05)
(0 -8.528821803e-06 6.201410551e-06)
(0 -1.915470895e-06 1.289560605e-06)
(0 -4.001289528e-07 2.520393592e-07)
(0 -7.712705559e-08 4.875145185e-08)
(0 -1.416427317e-08 9.458534578e-09)
(0 -2.399926684e-09 2.023467596e-09)
(0 -1.647008509e-09 2.823443158e-10)
(0 -2.305811912e-09 1.97641021e-09)
(0 -1.835238052e-09 8.940903332e-10)
(0 -9.411477192e-10 -4.235164736e-10)
(0 1.835238052e-09 -1.882295438e-10)
(0 1.505836351e-09 -5.176312455e-10)
(0 4.705738596e-10 4.235164736e-10)
(0 -2.305811912e-09 3.294017017e-10)
(0 -4.235164736e-09 0)
(0 0 -9.882051051e-10)
(0 1.599951123e-09 -6.588034034e-10)
(0 1.035262491e-09 0)
(0 4.705738596e-10 -1.364664193e-09)
(0 3.294017017e-10 -1.082319877e-09)
(0 1.599951123e-09 -2.588156228e-09)
(0 3.764590877e-10 -1.552893737e-09)
(0 -5.176312455e-10 -1.552893737e-09)
(0 0 -9.411477192e-11)
(0 9.411477192e-11 0)
(0 0 0)
(0 4.705738596e-11 0)
(0 -9.411477192e-11 -9.411477192e-11)
(0 -9.411477192e-11 -1.129377263e-09)
(0 1.176434649e-09 -1.599951123e-09)
(0 1.505836351e-09 -2.164639754e-09)
(0 -0.05125034102 2221.795099)
(0 -88.27184926 2244.772978)
(0 -301.6621974 2173.212498)
(0 -564.0821169 1970.671979)
(0 -823.6851207 1622.29747)
(0 -1034.729525 1151.311852)
(0 -1162.795183 599.3700527)
(0 -615.9607719 18.33376053)
(0 -16.94169532 3.962519165)
(0 -2.704071604 1.588939387)
(0 -0.8152536462 0.6975479632)
(0 -0.2778106907 0.3068422726)
(0 -0.1048602089 0.1267327974)
(0 -0.04049981603 0.04776937607)
(0 -0.01495648643 0.01631484762)
(0 -0.005107240118 0.005058368435)
(0 -0.001595357616 0.001431032001)
(0 -0.0004557565711 0.0003715951421)
(0 -0.0001195229839 8.90836315e-05)
(0 -2.892104589e-05 1.982330029e-05)
(0 -6.48982527e-06 4.115121345e-06)
(0 -1.354970371e-06 8.007755369e-07)
(0 -2.638037057e-07 1.472425607e-07)
(0 -4.884556662e-08 2.578744751e-08)
(0 -8.893845946e-09 4.18810735e-09)
(0 -2.729328386e-09 0)
(0 -1.97641021e-09 9.411477192e-10)
(0 -2.870500543e-09 6.588034034e-10)
(0 -1.223492035e-09 3.764590877e-10)
(0 1.505836351e-09 4.705738596e-10)
(0 1.505836351e-09 1.411721579e-10)
(0 -2.823443158e-10 1.882295438e-10)
(0 -2.44698407e-09 -1.223492035e-09)
(0 -2.541098842e-09 0)
(0 -8.470329473e-10 1.599951123e-09)
(0 9.882051051e-10 0)
(0 9.411477192e-10 0)
(0 5.646886315e-10 -9.882051051e-10)
(0 8.940903332e-10 -4.705738596e-11)
(0 1.035262491e-09 -5.176312455e-10)
(0 7.058607894e-10 -5.176312455e-10)
(0 0 -9.411477192e-11)
(0 0 4.705738596e-11)
(0 0 -9.411477192e-11)
(0 0 -4.705738596e-11)
(0 0 -9.411477192e-11)
(0 0 0)
(0 0 4.705738596e-11)
(0 4.705738596e-10 1.129377263e-09)
(0 2.21169714e-09 1.082319877e-09)
(0 16.40617145 3212.37844)
(0 -113.3289501 3261.783462)
(0 -463.9404098 3175.807131)
(0 -895.1313856 2900.624498)
(0 -1318.428409 2394.556069)
(0 -1651.381282 1697.27218)
(0 -1843.550619 883.3588758)
(0 -973.1491146 29.24519176)
(0 -27.06498642 8.057709015)
(0 -4.802019655 3.899010007)
(0 -1.696878055 1.935507472)
(0 -0.6914264955 0.9054146275)
(0 -0.2979653793 0.3839763278)
(0 -0.1238602229 0.1461648787)
(0 -0.04737308841 0.05004318063)
(0 -0.0164261532 0.0155039091)
(0 -0.00516140284 0.004376817021)
(0 -0.001476661948 0.001133526736)
(0 -0.0003870222003 0.000270988098)
(0 -9.349737901e-05 6.013482175e-05)
(0 -2.09379486e-05 1.244893734e-05)
(0 -4.368054794e-06 2.41474976e-06)
(0 -8.520210302e-07 4.399395013e-07)
(0 -1.572187265e-07 7.585650617e-08)
(0 -2.81403168e-08 1.251726466e-08)
(0 -4.988082912e-09 8.940903332e-10)
(0 -1.647008509e-09 8.940903332e-10)
(0 -2.399926684e-09 3.764590877e-10)
(0 -1.082319877e-09 8.940903332e-10)
(0 1.647008509e-09 8.940903332e-10)
(0 1.176434649e-09 6.588034034e-10)
(0 -8.470329473e-10 4.705738596e-11)
(0 -2.494041456e-09 1.882295438e-10)
(0 -1.505836351e-09 6.117460175e-10)
(0 0 -3.294017017e-10)
(0 0 8.940903332e-10)
(0 4.705738596e-11 0)
(0 4.235164736e-10 0)
(0 7.999755613e-10 -1.882295438e-10)
(0 1.176434649e-09 0)
(0 7.999755613e-10 -4.705738596e-11)
(0 0 4.705738596e-11)
(0 0 0)
(0 0 9.411477192e-11)
(0 0 4.705738596e-11)
(0 1.411721579e-10 0)
(0 0 1.411721579e-10)
(0 9.411477192e-10 0)
(0 2.258754526e-09 1.647008509e-09)
(0 -6.588034034e-10 1.97641021e-09)
(0 49.35377143 4296.927742)
(0 -124.8431587 4389.955763)
(0 -662.8211615 4337.914008)
(0 -1345.333179 4042.458788)
(0 -2027.037438 3391.109646)
(0 -2545.926718 2419.753386)
(0 -2830.822171 1269.838538)
(0 -1491.261939 48.39182194)
(0 -42.28787707 17.91870562)
(0 -8.826273147 10.11756324)
(0 -3.808849026 5.422737467)
(0 -1.829341834 2.616800907)
(0 -0.8641099578 1.121292024)
(0 -0.3744329632 0.4275565165)
(0 -0.1456174561 0.1461273494)
(0 -0.05077360382 0.04513451251)
(0 -0.01596573998 0.01269837024)
(0 -0.004561585447 0.003277546273)
(0 -0.001192914851 0.000781026399)
(0 -0.0002874602065 0.0001727966506)
(0 -6.420994431e-05 3.567039265e-05)
(0 -1.336396821e-05 6.900965651e-06)
(0 -2.602744017e-06 1.25454991e-06)
(0 -4.762678033e-07 2.147228521e-07)
(0 -8.380920439e-08 3.515186731e-08)
(0 -1.425838795e-08 5.411599385e-09)
(0 -2.588156228e-09 7.529181753e-10)
(0 -2.870500543e-09 1.882295438e-10)
(0 -7.529181753e-10 5.176312455e-10)
(0 1.270549421e-09 4.235164736e-10)
(0 7.058607894e-10 1.411721579e-10)
(0 -7.529181753e-10 2.352869298e-10)
(0 -1.929352824e-09 -9.411477192e-11)
(0 -3.011672701e-09 1.176434649e-09)
(0 -5.646886315e-10 -8.940903332e-10)
(0 1.317606807e-09 0)
(0 0 -9.411477192e-11)
(0 4.235164736e-10 -4.705738596e-11)
(0 8.470329473e-10 9.411477192e-11)
(0 1.176434649e-09 0)
(0 8.470329473e-10 0)
(0 4.705738596e-11 4.705738596e-11)
(0 0 9.411477192e-11)
(0 4.705738596e-11 4.705738596e-11)
(0 -4.705738596e-11 4.705738596e-11)
(0 4.705738596e-11 1.599951123e-09)
(0 0 1.552893737e-09)
(0 1.505836351e-09 -3.294017017e-10)
(0 2.44698407e-09 -1.035262491e-09)
(0 -1.411721579e-09 -2.588156228e-09)
(0 109.4341919 5200.908561)
(0 -72.34268394 5361.925857)
(0 -811.4373847 5432.055515)
(0 -1841.935748 5245.669139)
(0 -2941.133811 4589.792125)
(0 -3772.65239 3368.532227)
(0 -4214.912182 1793.078596)
(0 -2225.068947 86.05726072)
(0 -65.33924512 42.99228185)
(0 -17.29798781 26.8278098)
(0 -9.197640386 14.94253052)
(0 -4.992871938 7.292882029)
(0 -2.48720977 3.127437444)
(0 -1.099024898 1.188909101)
(0 -0.4297950923 0.4046319075)
(0 -0.1498551323 0.1244342888)
(0 -0.04701836913 0.03486369056)
(0 -0.01339400579 0.008964172739)
(0 -0.00349177187 0.002128686547)
(0 -0.0008388532913 0.0004694650464)
(0 -0.0001868336806 9.66331891e-05)
(0 -3.878380342e-05 1.864554804e-05)
(0 -7.538310886e-06 3.384367198e-06)
(0 -1.376616769e-06 5.783352734e-07)
(0 -2.374515695e-07 9.298539465e-08)
(0 -3.933997466e-08 1.482307658e-08)
(0 -6.87037835e-09 9.411477192e-10)
(0 -2.682271e-09 -1.882295438e-10)
(0 -8.470329473e-10 4.705738596e-10)
(0 1.223492035e-09 -6.588034034e-10)
(0 1.035262491e-09 -1.176434649e-09)
(0 -1.129377263e-09 -1.082319877e-09)
(0 -1.599951123e-09 -2.823443158e-10)
(0 -2.21169714e-09 8.470329473e-10)
(0 -1.223492035e-09 1.788180666e-09)
(0 8.470329473e-10 0)
(0 0 1.270549421e-09)
(0 6.117460175e-10 1.129377263e-09)
(0 7.999755613e-10 0)
(0 1.082319877e-09 2.823443158e-10)
(0 7.999755613e-10 4.705738596e-11)
(0 9.411477192e-11 -9.411477192e-11)
(0 4.705738596e-11 0)
(0 -9.411477192e-11 -1.411721579e-10)
(0 1.552893737e-09 -9.411477192e-11)
(0 1.694065895e-09 0)
(0 -1.882295438e-09 0)
(0 -1.694065895e-09 4.705738596e-11)
(0 0 1.882295438e-10)
(0 3.011672701e-09 -7.058607894e-10)
(0 210.3710679 5667.016365)
(0 106.3037955 5906.745885)
(0 -779.0778794 6152.108979)
(0 -2187.596569 6210.430064)
(0 -3904.174351 5815.789507)
(0 -5342.640246 4596.576936)
(0 -6113.297137 2540.768486)
(0 -3241.348253 168.5494672)
(0 -101.517328 107.5658316)
(0 -36.87602448 70.5332613)
(0 -23.3437768 39.78688832)
(0 -13.64443491 19.40710914)
(0 -6.968082885 8.282336682)
(0 -3.0972385 3.130315067)
(0 -1.210092268 1.05934849)
(0 -0.4205418208 0.3240960247)
(0 -0.1314358559 0.09038667861)
(0 -0.03729658946 0.02314541641)
(0 -0.009687622544 0.005476305126)
(0 -0.002319513611 0.001203838094)
(0 -0.0005150294427 0.0002470700522)
(0 -0.0001066127901 4.754635926e-05)
(0 -2.066990972e-05 8.612913352e-06)
(0 -3.767649607e-06 1.472802066e-06)
(0 -6.473684586e-07 2.38486832e-07)
(0 -1.063496923e-07 3.599890026e-08)
(0 -1.755240496e-08 4.42339428e-09)
(0 -3.246959631e-09 -1.411721579e-10)
(0 -1.270549421e-09 -4.705738596e-10)
(0 -3.764590877e-10 -1.505836351e-09)
(0 2.352869298e-10 -1.411721579e-09)
(0 1.882295438e-10 -1.317606807e-09)
(0 -4.705738596e-11 4.705738596e-11)
(0 -8.940903332e-10 2.352869298e-10)
(0 -1.411721579e-09 2.023467596e-09)
(0 7.999755613e-10 3.764590877e-10)
(0 1.082319877e-09 1.694065895e-09)
(0 -8.470329473e-10 1.411721579e-09)
(0 4.705738596e-11 7.999755613e-10)
(0 1.176434649e-09 7.058607894e-10)
(0 5.176312455e-10 0)
(0 0 4.705738596e-11)
(0 0 -9.411477192e-11)
(0 0 9.411477192e-11)
(0 0 4.705738596e-11)
(0 1.411721579e-10 -1.505836351e-09)
(0 0 -1.552893737e-09)
(0 1.788180666e-09 2.823443158e-10)
(0 1.694065895e-09 1.694065895e-09)
(0 -9.411477192e-10 2.682271e-09)
(0 349.1637116 5518.842774)
(0 412.7499299 5823.298875)
(0 -507.7532062 6257.545813)
(0 -2178.25522 6647.404554)
(0 -4554.986939 6747.037229)
(0 -7047.673411 5986.483484)
(0 -8642.939651 3677.600696)
(0 -4658.271601 358.1726348)
(0 -163.355451 270.5609254)
(0 -85.07693107 179.9584699)
(0 -60.32379254 101.2089937)
(0 -36.49742357 48.99261395)
(0 -18.76400385 20.73840168)
(0 -8.322013091 7.779569328)
(0 -3.236014134 2.615532065)
(0 -1.118816943 0.7956826881)
(0 -0.3479689774 0.2208275186)
(0 -0.09830437932 0.05630883402)
(0 -0.02543335013 0.01327368146)
(0 -0.006068088459 0.002908383104)
(0 -0.001343125368 0.0005951629946)
(0 -0.0002772409893 0.0001142338749)
(0 -5.361186808e-05 2.064355759e-05)
(0 -9.750996231e-06 3.524786438e-06)
(0 -1.674207678e-06 5.696767144e-07)
(0 -2.734504698e-07 8.620913108e-08)
(0 -4.305750815e-08 1.148200217e-08)
(0 -7.576239139e-09 1.411721579e-10)
(0 -2.164639754e-09 -1.835238052e-09)
(0 2.823443158e-10 -1.129377263e-09)
(0 1.176434649e-09 0)
(0 3.764590877e-10 0)
(0 -4.705738596e-11 0)
(0 -2.823443158e-10 0)
(0 -1.035262491e-09 6.117460175e-10)
(0 5.176312455e-10 1.411721579e-10)
(0 1.082319877e-09 -3.764590877e-10)
(0 -2.823443158e-10 1.882295438e-10)
(0 9.411477192e-11 1.458778965e-09)
(0 2.823443158e-10 5.176312455e-10)
(0 9.411477192e-11 4.705738596e-11)
(0 0 0)
(0 0 4.705738596e-11)
(0 9.411477192e-11 0)
(0 0 0)
(0 4.705738596e-11 0)
(0 -9.411477192e-11 -4.705738596e-11)
(0 1.552893737e-09 -4.705738596e-11)
(0 2.44698407e-09 -4.235164736e-10)
(0 -1.411721579e-09 -4.705738596e-10)
(0 514.8271684 4665.37542)
(0 845.0068339 5016.624979)
(0 45.02779975 5677.363129)
(0 -1698.105153 6486.065933)
(0 -4565.095421 7205.994228)
(0 -8412.076779 7232.907726)
(0 -11741.60799 5259.018796)
(0 -6648.388024 788.9764819)
(0 -279.7314929 665.1215498)
(0 -206.2279562 439.3116152)
(0 -154.3096328 244.0927829)
(0 -94.1150269 116.7757147)
(0 -48.18112751 48.93019645)
(0 -21.22010812 18.19950377)
(0 -8.193978909 6.075572319)
(0 -2.815246367 1.837353105)
(0 -0.8708097102 0.5073762609)
(0 -0.2448504265 0.1288228531)
(0 -0.06308807336 0.03025501239)
(0 -0.01499803208 0.006607648306)
(0 -0.003309178672 0.001348286387)
(0 -0.0006811322272 0.000258119644)
(0 -0.0001313789512 4.653613129e-05)
(0 -2.384153048e-05 7.928322501e-06)
(0 -4.08603988e-06 1.279113865e-06)
(0 -6.644973471e-07 1.958998977e-07)
(0 -1.035733065e-07 2.795208726e-08)
(0 -1.661125724e-08 3.294017017e-09)
(0 -2.541098842e-09 2.352869298e-10)
(0 1.505836351e-09 7.529181753e-10)
(0 1.364664193e-09 3.294017017e-10)
(0 9.411477192e-11 -4.705738596e-11)
(0 0 0)
(0 -2.823443158e-10 -4.705738596e-11)
(0 -1.223492035e-09 -4.705738596e-11)
(0 -2.823443158e-10 -4.235164736e-10)
(0 1.082319877e-09 -1.317606807e-09)
(0 1.082319877e-09 -3.764590877e-10)
(0 3.764590877e-10 3.764590877e-10)
(0 -1.882295438e-10 1.882295438e-10)
(0 -4.705738596e-11 4.705738596e-11)
(0 0 -9.411477192e-11)
(0 4.705738596e-11 4.705738596e-11)
(0 -1.411721579e-10 -9.411477192e-11)
(0 0 -4.705738596e-11)
(0 1.411721579e-10 -9.411477192e-11)
(0 0 0)
(0 1.364664193e-09 4.705738596e-11)
(0 1.223492035e-09 -1.694065895e-09)
(0 0 -1.223492035e-09)
(0 700.4132702 3272.380277)
(0 1424.737639 3592.506273)
(0 961.6877485 4465.938176)
(0 -649.6241209 5786.518058)
(0 -3808.145146 7259.33602)
(0 -8994.648843 8233.782678)
(0 -15086.8709 7185.562826)
(0 -9252.168847 1742.807877)
(0 -513.0203177 1570.308171)
(0 -506.1056979 1016.744547)
(0 -382.859693 555.0809637)
(0 -231.66001 261.7899664)
(0 -117.3402148 108.4509294)
(0 -51.17663722 39.97243925)
(0 -19.5981648 13.24609609)
(0 -6.687013002 3.981677232)
(0 -2.056499229 1.093990678)
(0 -0.5754256278 0.276581629)
(0 -0.147648555 0.0647197933)
(0 -0.03497481437 0.01408973686)
(0 -0.00769265403 0.002866945829)
(0 -0.001578991245 0.0005474853453)
(0 -0.0003038032837 9.848442666e-05)
(0 -5.500801366e-05 1.674306498e-05)
(0 -9.406536166e-06 2.696952904e-06)
(0 -1.524706362e-06 4.130697339e-07)
(0 -2.357104463e-07 6.03275688e-08)
(0 -3.524598208e-08 9.31736242e-09)
(0 -4.705738596e-09 3.341074403e-09)
(0 3.764590877e-10 1.599951123e-09)
(0 4.235164736e-10 9.411477192e-11)
(0 4.705738596e-11 0)
(0 -4.705738596e-11 -4.705738596e-11)
(0 -3.294017017e-10 0)
(0 -1.364664193e-09 -4.705738596e-11)
(0 -7.529181753e-10 -9.411477192e-11)
(0 1.129377263e-09 -5.176312455e-10)
(0 1.411721579e-09 -6.117460175e-10)
(0 6.117460175e-10 -3.294017017e-10)
(0 -9.411477192e-11 0)
(0 -1.411721579e-10 -9.411477192e-11)
(0 0 4.705738596e-11)
(0 0 -9.411477192e-11)
(0 0 0)
(0 0 0)
(0 1.411721579e-10 0)
(0 0 4.705738596e-11)
(0 -9.411477192e-11 0)
(0 1.129377263e-09 -1.458778965e-09)
(0 1.505836351e-09 -1.176434649e-09)
(0 834.9531649 1923.616852)
(0 2038.564733 1977.149997)
(0 2239.039584 2806.161046)
(0 1095.292692 4577.874903)
(0 -2117.830801 6999.737593)
(0 -8485.849973 9238.368412)
(0 -18232.58279 9598.838175)
(0 -12263.64268 3782.051097)
(0 -1005.794823 3521.14971)
(0 -1221.455163 2216.355523)
(0 -909.2642134 1184.852997)
(0 -540.7450612 550.0576228)
(0 -269.9986547 225.1396997)
(0 -116.4249414 82.20547906)
(0 -44.18474093 27.03880788)
(0 -14.96735178 8.078688234)
(0 -4.575905313 2.208629269)
(0 -1.274121311 0.5560514082)
(0 -0.3255799656 0.1296519074)
(0 -0.07685087955 0.02813869022)
(0 -0.01685143019 0.005710115913)
(0 -0.003449593676 0.001087814909)
(0 -0.0006621212785 0.0001952595879)
(0 -0.0001196289101 3.313004672e-05)
(0 -2.041608219e-05 5.329766591e-06)
(0 -3.301075625e-06 8.152221543e-07)
(0 -5.072315632e-07 1.188669569e-07)
(0 -7.369186641e-08 1.651714247e-08)
(0 -1.025851014e-08 2.588156228e-09)
(0 -1.74112328e-09 1.411721579e-10)
(0 -2.352869298e-10 0)
(0 0 0)
(0 -4.705738596e-11 4.705738596e-11)
(0 -2.823443158e-10 0)
(0 -1.364664193e-09 -3.764590877e-10)
(0 -7.529181753e-10 0)
(0 6.588034034e-10 -3.294017017e-10)
(0 1.223492035e-09 -8.470329473e-10)
(0 9.882051051e-10 -9.411477192e-10)
(0 9.411477192e-11 -9.411477192e-11)
(0 -4.705738596e-11 0)
(0 0 0)
(0 0 0)
(0 0 0)
(0 0 0)
(0 1.411721579e-10 0)
(0 0 0)
(0 -9.411477192e-11 0)
(0 0 0)
(0 2.635213614e-09 3.764590877e-10)
(0 753.9464153 1201.20125)
(0 2307.281833 1033.619824)
(0 3562.412655 1403.744227)
(0 3543.952425 3007.82476)
(0 852.3483631 6397.154485)
(0 -6395.548261 10372.87743)
(0 -20543.18821 12925.48555)
(0 -15329.85731 7889.990801)
(0 -2078.715892 7429.030671)
(0 -2842.40241 4524.111674)
(0 -2049.157593 2363.836563)
(0 -1191.373308 1079.411687)
(0 -585.1923585 436.4035398)
(0 -249.277529 157.8513898)
(0 -93.72495563 51.53814439)
(0 -31.51719161 15.30772372)
(0 -9.579136055 4.164739081)
(0 -2.65440299 1.044298816)
(0 -0.675561273 0.2426611512)
(0 -0.1589166059 0.05251016314)
(0 -0.03474352943 0.01062832905)
(0 -0.007093847523 0.002020157109)
(0 -0.001358488052 0.0003618731333)
(0 -0.0002449379291 6.128885708e-05)
(0 -4.172131368e-05 9.844122798e-06)
(0 -6.735605997e-06 1.502683506e-06)
(0 -1.034462516e-06 2.198050498e-07)
(0 -1.514777254e-07 3.039907133e-08)
(0 -2.108170891e-08 3.529303947e-09)
(0 -2.21169714e-09 9.411477192e-11)
(0 2.352869298e-10 -1.411721579e-10)
(0 4.705738596e-11 0)
(0 0 9.411477192e-11)
(0 -7.529181753e-10 0)
(0 -1.411721579e-09 -7.529181753e-10)
(0 -6.588034034e-10 0)
(0 2.352869298e-10 -3.294017017e-10)
(0 8.470329473e-10 -6.588034034e-10)
(0 1.364664193e-09 -1.129377263e-09)
(0 8.470329473e-10 -6.588034034e-10)
(0 -4.705738596e-11 0)
(0 0 0)
(0 0 0)
(0 0 0)
(0 0 0)
(0 1.411721579e-10 0)
(0 0 0)
(0 -9.411477192e-11 0)
(0 1.505836351e-09 6.117460175e-10)
(0 1.129377263e-09 2.164639754e-09)
(0 667.3717386 1040.241993)
(0 2241.10771 950.3174188)
(0 4213.24452 1055.62512)
(0 6088.70295 2144.16124)
(0 5247.221873 5431.691483)
(0 -1957.518905 11485.86171)
(0 -20715.46942 17498.8857)
(0 -17760.09756 15486.8231)
(0 -4371.67395 14615.9763)
(0 -6286.649271 8597.130437)
(0 -4353.9642 4388.065695)
(0 -2468.178085 1970.845342)
(0 -1191.558952 787.188228)
(0 -501.2903369 282.1293724)
(0 -186.728407 91.45924994)
(0 -62.34075709 27.01100863)
(0 -18.83933022 7.31492029)
(0 -5.196199241 1.827175889)
(0 -1.317368619 0.4232030833)
(0 -0.3088837018 0.09132396094)
(0 -0.06734143613 0.01843977738)
(0 -0.0137160496 0.003497432591)
(0 -0.002620989484 0.0006253085208)
(0 -0.0004716580147 0.0001057250525)
(0 -8.020225576e-05 1.695279975e-05)
(0 -1.292534632e-05 2.585191612e-06)
(0 -1.979515998e-06 3.756591121e-07)
(0 -2.899676123e-07 5.326896091e-08)
(0 -4.05634667e-08 7.293894824e-09)
(0 -5.458656771e-09 9.411477192e-10)
(0 -3.294017017e-10 0)
(0 2.823443158e-10 3.294017017e-10)
(0 0 -4.705738596e-11)
(0 -1.176434649e-09 8.470329473e-10)
(0 -1.411721579e-09 -7.529181753e-10)
(0 -2.823443158e-10 -2.352869298e-10)
(0 0 -4.705738596e-11)
(0 4.235164736e-10 -2.823443158e-10)
(0 9.882051051e-10 -5.646886315e-10)
(0 1.176434649e-09 -8.470329473e-10)
(0 6.588034034e-10 4.705738596e-11)
(0 0 1.411721579e-10)
(0 0 -4.705738596e-11)
(0 0 0)
(0 0 -4.705738596e-11)
(0 1.411721579e-10 4.705738596e-11)
(0 0 -1.411721579e-10)
(0 4.705738596e-10 9.411477192e-11)
(0 2.21169714e-09 -4.705738596e-11)
(0 -1.411721579e-10 7.058607894e-10)
(0 664.0218412 1159.163793)
(0 2322.664961 1218.4178)
(0 4756.256476 1503.857576)
(0 7920.018788 2475.409056)
(0 10194.04883 5086.641948)
(0 5671.645953 12199.68431)
(0 -16542.22682 23175.91175)
(0 -18212.76671 28087.69494)
(0 -8968.408551 26590.59324)
(0 -13070.31301 15118.81682)
(0 -8675.442688 7543.267353)
(0 -4792.250775 3334.313641)
(0 -2273.908328 1316.393816)
(0 -945.0065071 467.6968609)
(0 -348.8433194 150.5967132)
(0 -115.6615213 44.23944265)
(0 -34.7629688 11.92889591)
(0 -9.546120197 2.969058692)
(0 -2.411413201 0.6856158814)
(0 -0.5636799117 0.1475703645)
(0 -0.1225700578 0.02973033101)
(0 -0.02490831643 0.00562781358)
(0 -0.004750195544 0.001004440797)
(0 -0.0008532936501 0.0001695611259)
(0 -0.0001448612216 2.715102938e-05)
(0 -2.331269958e-05 4.136720685e-06)
(0 -3.566432224e-06 6.003581301e-07)
(0 -5.199370575e-07 8.366803223e-08)
(0 -7.331540732e-08 1.204669081e-08)
(0 -9.458534578e-09 1.788180666e-09)
(0 -3.764590877e-10 7.999755613e-10)
(0 0 7.529181753e-10)
(0 5.646886315e-10 1.129377263e-09)
(0 -1.411721579e-09 2.823443158e-10)
(0 -2.541098842e-09 -2.352869298e-10)
(0 0 -4.705738596e-11)
(0 2.352869298e-10 0)
(0 2.823443158e-10 -4.705738596e-11)
(0 8.470329473e-10 -3.764590877e-10)
(0 1.411721579e-09 -3.294017017e-10)
(0 9.411477192e-10 1.411721579e-10)
(0 -9.411477192e-11 0)
(0 -9.411477192e-11 1.882295438e-10)
(0 -4.705738596e-11 4.705738596e-11)
(0 9.411477192e-11 4.705738596e-11)
(0 -4.705738596e-11 4.705738596e-11)
(0 1.411721579e-10 -9.411477192e-11)
(0 -4.705738596e-11 1.694065895e-09)
(0 2.21169714e-09 1.129377263e-09)
(0 3.764590877e-10 3.294017017e-10)
(0 726.6257454 1452.621267)
(0 2585.801492 1629.784644)
(0 5470.235776 2152.09735)
(0 9671.487323 3372.133676)
(0 14971.49712 6080.18922)
(0 16131.75089 12543.5791)
(0 -4827.458788 28936.33232)
(0 -14345.41607 46429.87252)
(0 -17340.55207 44392.99449)
(0 -25333.97516 24457.76669)
(0 -16138.46738 11946.51349)
(0 -8695.051622 5202.686858)
(0 -4058.175732 2031.983748)
(0 -1667.087439 716.1305665)
(0 -610.1858252 229.1634573)
(0 -201.0085744 66.9901167)
(0 -60.10971418 17.9921389)
(0 -16.43947927 4.463598225)
(0 -4.138856947 1.027917409)
(0 -0.9647692522 0.2207300862)
(0 -0.2092839871 0.04437951294)
(0 -0.04244193976 0.008385904381)
(0 -0.008079241985 0.00149433369)
(0 -0.001448947689 0.0002519019046)
(0 -0.0002456266139 4.02850752e-05)
(0 -3.947611168e-05 6.1278128e-06)
(0 -6.03256865e-06 8.894787094e-07)
(0 -8.782790515e-07 1.235256381e-07)
(0 -1.22537433e-07 1.778769189e-08)
(0 -1.665831463e-08 3.482246561e-09)
(0 -1.317606807e-09 1.647008509e-09)
(0 4.705738596e-10 6.588034034e-10)
(0 -4.235164736e-10 1.223492035e-09)
(0 -2.494041456e-09 -1.176434649e-09)
(0 -1.74112328e-09 -1.411721579e-10)
(0 0 1.882295438e-10)
(0 0 -9.411477192e-11)
(0 4.705738596e-11 0)
(0 7.058607894e-10 -9.411477192e-11)
(0 1.74112328e-09 -1.411721579e-10)
(0 9.411477192e-10 -1.411721579e-10)
(0 0 -9.411477192e-11)
(0 4.705738596e-11 4.705738596e-11)
(0 -1.411721579e-10 4.705738596e-11)
(0 0 4.705738596e-11)
(0 0 0)
(0 1.647008509e-09 4.705738596e-11)
(0 1.694065895e-09 -9.411477192e-11)
(0 7.999755613e-10 4.705738596e-11)
(0 -1.505836351e-09 -2.305811912e-09)
(0 841.1852174 1803.741824)
(0 3022.141043 2071.706708)
(0 6498.605508 2824.089367)
(0 11848.11066 4481.888331)
(0 19365.49426 7898.107429)
(0 28527.78905 14758.59858)
(0 17344.0666 32924.02952)
(0 -2756.104538 69315.65885)
(0 -30940.51438 67515.57796)
(0 -45516.79402 36163.10509)
(0 -27930.52252 17328.93886)
(0 -14706.78051 7445.891843)
(0 -6760.46462 2879.891703)
(0 -2747.826797 1007.600989)
(0 -997.9837691 320.6399272)
(0 -326.8328396 93.32013764)
(0 -97.28948727 24.97533306)
(0 -26.51034169 6.178036612)
(0 -6.65428134 1.419270742)
(0 -1.547217807 0.3041351448)
(0 -0.3349142396 0.06103895878)
(0 -0.06779349568 0.01151568416)
(0 -0.01288419811 0.002049176176)
(0 -0.002307342218 0.0003449964253)
(0 -0.0003906353134 5.510984584e-05)
(0 -6.270839018e-05 8.373203028e-06)
(0 -9.570625271e-06 1.213092353e-06)
(0 -1.39153396e-06 1.687007287e-07)
(0 -1.934058563e-07 2.296400435e-08)