/*--------------------------------*- C++ -*----------------------------------*\
  =========                 |
  \\      /  F ield         | OpenFOAM: The Open Source CFD Toolbox
   \\    /   O peration     | Website:  https://openfoam.org
    \\  /    A nd           | Version:  6
     \\/     M anipulation  |
\*---------------------------------------------------------------------------*/
FoamFile
{
    version     2.0;
    format      ascii;
    class       volVectorField;
    location    "0.04";
    object      Marangoni;
}
// * * * * * * * * * * * * * * * * * * * * * * * * * * * * * * * * * * * * * //

dimensions      [1 -2 -2 0 0 0 0];

internalField   nonuniform List<vector> 
2500
(
(-0 1.2215214e-32 -2.933156707e-30)
(-0 7.97594479e-29 -4.801130891e-27)
(-0 3.521794271e-25 -9.412753636e-24)
(-0 2.439274673e-22 -3.572884876e-21)
(-0 1.010207104e-20 -8.72567797e-20)
(-0 2.40059629e-20 -1.190543307e-19)
(-0 9.79571908e-12 -2.257149678e-11)
(-0 1.45802808e-07 -0.1910359936)
(-0 3.936520498e-09 -0.02621996395)
(-0 1.704534964e-14 -1.810949319e-14)
(-0 7.74000227e-18 -8.132489838e-18)
(-0 2.2597036e-18 -2.418019644e-18)
(-0 6.316061741e-19 -7.175494196e-19)
(-0 1.080929297e-19 -1.352616646e-19)
(-0 6.843061989e-20 -9.508782229e-20)
(-0 8.599995466e-21 -1.291135879e-20)
(-0 1.293668757e-21 -2.007628685e-21)
(-0 1.814085665e-22 -2.803237565e-22)
(-0 1.907771944e-22 -2.898620187e-22)
(-0 2.970152423e-23 -4.336082119e-23)
(-0 7.697258501e-24 -1.030802454e-23)
(-0 2.484576636e-24 -2.046121935e-24)
(-0 1.005115499e-24 4.138710879e-25)
(-0 1.846370819e-24 1.207242459e-24)
(-0 -1.416592761e-24 5.005294424e-24)
(-0 -9.687989383e-26 4.843994691e-25)
(-0 2.67083302e-24 4.619819277e-24)
(-0 1.147651326e-24 6.468580202e-24)
(-0 2.235917978e-25 1.416081386e-24)
(-0 -0 0)
(-0 0 0)
(-0 -0 0)
(-0 -0 0)
(-0 0 0)
(-0 0 0)
(-0 -0 0)
(-0 -0 0)
(-0 0 0)
(-0 -0 -0)
(-0 0 0)
(-0 -0 0)
(-0 0 0)
(-0 0 0)
(-0 -0 0)
(-0 -0 0)
(-0 -0 0)
(-0 -0 0)
(-0 0 0)
(-0 -0 0)
(-0 0 0)
(-0 8.73432124e-32 -8.689231465e-30)
(-0 5.378179136e-28 -1.30955747e-26)
(-0 1.689124858e-24 -1.797700915e-23)
(-0 8.792600032e-22 -5.092968066e-21)
(-0 9.636504539e-20 -3.281529743e-19)
(-0 1.670862654e-18 -3.261770373e-18)
(-0 1.897401349e-09 -1.718714952e-09)
(-0 4.800242123e-07 -0.2485929636)
(-0 1.298789777e-08 -0.03530084298)
(-0 3.68770282e-12 -1.64818979e-12)
(-0 3.198283471e-17 -1.490696551e-17)
(-0 8.695651336e-18 -4.486321984e-18)
(-0 5.330153446e-18 -3.238872339e-18)
(-0 1.244043584e-18 -9.128551013e-19)
(-0 3.849922858e-19 -3.305036193e-19)
(-0 1.10562559e-19 -1.039548959e-19)
(-0 2.019917149e-20 -1.950071811e-20)
(-0 5.082636645e-21 -4.816191499e-21)
(-0 1.336301832e-21 -1.208415832e-21)
(-0 3.308932774e-22 -2.799794332e-22)
(-0 8.689278348e-23 -6.616804506e-23)
(-0 1.879865231e-23 -1.09153465e-23)
(-0 4.522459911e-24 5.383880846e-25)
(-0 2.409608531e-24 1.566245545e-24)
(-0 1.154706023e-24 -4.04147108e-24)
(-0 2.069355439e-24 5.173388598e-24)
(-0 1.596682347e-24 3.193364695e-24)
(-0 1.703938358e-25 5.111815073e-24)
(-0 -1.031334274e-24 1.80483498e-24)
(-0 -7.611991658e-26 2.075997725e-26)
(-0 -0 0)
(-0 -0 -0)
(-0 -0 0)
(-0 0 0)
(-0 0 0)
(-0 -0 0)
(-0 -0 0)
(-0 -0 0)
(-0 0 0)
(-0 0 0)
(-0 -0 0)
(-0 0 0)
(-0 -0 0)
(-0 -0 0)
(-0 -0 0)
(-0 -0 0)
(-0 -0 0)
(-0 -0 0)
(-0 -0 0)
(-0 -0 0)
(-0 5.974507251e-29 -5.539596152e-27)
(-0 1.646970219e-27 -3.339166998e-26)
(-0 3.250945734e-24 -2.711039446e-23)
(-0 4.067636926e-21 -1.804695509e-20)
(-0 4.108298542e-19 -1.061344544e-18)
(-0 4.540342657e-18 -6.694043458e-18)
(-0 4.585692603e-09 -3.130254562e-09)
(-0 9.556868195e-07 -0.3765989387)
(-0 2.592495336e-08 -0.05646543597)
(-0 9.086264831e-12 -3.425163406e-12)
(-0 5.895621445e-17 -2.521668711e-17)
(-0 4.322165543e-17 -2.275191203e-17)
(-0 1.21482481e-17 -8.189771625e-18)
(-0 1.985738899e-18 -1.653040038e-18)
(-0 8.657028409e-19 -8.164036204e-19)
(-0 2.742563201e-19 -2.691331339e-19)
(-0 1.092053869e-19 -1.052539636e-19)
(-0 2.094975312e-20 -1.921740205e-20)
(-0 4.622397233e-21 -3.976524932e-21)
(-0 1.439266826e-21 -1.156051157e-21)
(-0 3.556704882e-22 -2.646606868e-22)
(-0 8.327818491e-23 -5.435522249e-23)
(-0 1.84711132e-23 -9.503253892e-24)
(-0 -8.70001581e-25 -4.930008959e-24)
(-0 7.818825907e-25 -6.255060726e-24)
(-0 6.925056214e-24 -5.91777531e-24)
(-0 5.314842501e-24 -6.643553126e-25)
(-0 -3.827950664e-25 -8.931884882e-25)
(-0 -2.939571727e-24 1.175828691e-24)
(-0 -8.652204635e-25 2.884068212e-25)
(-0 -0 -0)
(-0 0 -0)
(-0 0 0)
(-0 0 0)
(-0 -0 -0)
(-0 -0 0)
(-0 -0 0)
(-0 -0 0)
(-0 0 0)
(-0 -0 -0)
(-0 0 -0)
(-0 -0 -0)
(-0 -0 -0)
(-0 -0 0)
(-0 -0 -0)
(-0 -0 0)
(-0 -0 -0)
(-0 0 -0)
(-0 0 -0)
(-0 -0 -0)
(-0 1.584600626e-25 -1.907346648e-23)
(-0 5.232772016e-24 -1.085625061e-22)
(-0 2.43481215e-23 -1.886040903e-22)
(-0 5.07864267e-21 -2.028523536e-20)
(-0 8.655960482e-19 -1.988403924e-18)
(-0 6.96191601e-18 -9.07938515e-18)
(-0 6.63018702e-09 -3.996198701e-09)
(-0 1.696169294e-06 -0.5994046149)
(-0 4.612843965e-08 -0.09710686179)
(-0 1.341667736e-11 -5.254968293e-12)
(-0 1.865196907e-16 -9.184342793e-17)
(-0 5.890856986e-17 -3.878442685e-17)
(-0 1.980190873e-17 -1.687807677e-17)
(-0 9.2268825e-18 -9.177615139e-18)
(-0 2.810627208e-18 -2.93355366e-18)
(-0 8.515944825e-19 -8.692594125e-19)
(-0 2.35294169e-19 -2.265558604e-19)
(-0 9.788517973e-20 -8.757860582e-20)
(-0 2.181732749e-20 -1.806246348e-20)
(-0 5.0494124e-21 -3.869856224e-21)
(-0 5.609946656e-22 -3.977629315e-22)
(-0 3.368214521e-22 -2.196661644e-22)
(-0 5.35924834e-23 -3.814239809e-23)
(-0 5.296523048e-24 -1.098059656e-23)
(-0 -2.887387048e-25 -1.010585467e-24)
(-0 8.353951623e-24 -6.155543301e-24)
(-0 6.554301649e-24 -3.813411868e-24)
(-0 1.481145128e-24 -3.406633796e-24)
(-0 4.552130964e-25 1.365639289e-24)
(-0 -5.74732762e-24 1.756127884e-24)
(-0 -8.234790976e-25 -9.203589914e-25)
(-0 0 -0)
(-0 0 -0)
(-0 0 -0)
(-0 0 0)
(-0 -0 -0)
(-0 -0 0)
(-0 -0 0)
(-0 -0 0)
(-0 -0 0)
(-0 0 -0)
(-0 0 -0)
(-0 0 -0)
(-0 0 -0)
(-0 -0 -0)
(-0 -0 -0)
(-0 -0 0)
(-0 -0 0)
(-0 -0 -0)
(-0 0 -0)
(-0 1.874880382e-22 -4.214719525e-20)
(-0 1.451132078e-20 -3.309410089e-19)
(-0 8.337235042e-20 -6.250869528e-19)
(-0 1.308770674e-19 -4.895222876e-19)
(-0 2.390002607e-19 -5.081366485e-19)
(-0 1.81624975e-17 -2.183584495e-17)
(-0 2.10303653e-08 -1.168272945e-08)
(-0 2.864884227e-06 -0.9576896689)
(-0 7.812068648e-08 -0.1740814945)
(-0 4.392927553e-11 -2.009186408e-11)
(-0 6.110654693e-16 -3.87301528e-16)
(-0 2.530618437e-16 -2.191950129e-16)
(-0 9.104049864e-17 -9.583507942e-17)
(-0 3.424359283e-17 -3.836776727e-17)
(-0 5.873427015e-18 -6.414788117e-18)
(-0 2.46999209e-18 -2.519595243e-18)
(-0 2.247651061e-19 -2.107349373e-19)
(-0 1.119236722e-19 -9.612861426e-20)
(-0 4.450315128e-20 -3.508890648e-20)
(-0 4.689948348e-21 -3.408612939e-21)
(-0 3.738699859e-21 -2.515903199e-21)
(-0 1.04540719e-21 -6.581132251e-22)
(-0 2.024786247e-22 -1.281653291e-22)
(-0 3.291679135e-23 -2.190745911e-23)
(-0 6.099930139e-24 -5.123941316e-24)
(-0 4.874175636e-24 -8.12362606e-25)
(-0 7.702863912e-24 -6.316348408e-24)
(-0 6.19282683e-24 -2.933444288e-24)
(-0 2.469962346e-24 1.111483056e-24)
(-0 -6.324714073e-24 8.321992202e-25)
(-0 -2.568128432e-24 9.63048162e-25)
(-0 -0 -0)
(-0 0 -0)
(-0 0 -0)
(-0 -0 0)
(-0 -0 0)
(-0 -0 -0)
(-0 -0 0)
(-0 -0 0)
(-0 -0 0)
(-0 -0 0)
(-0 0 0)
(-0 -0 0)
(-0 -0 -0)
(-0 -0 0)
(-0 -0 -0)
(-0 0 0)
(-0 0 0)
(-0 -0 0)
(-0 -0 0)
(-0 -5.918863742e-21 -1.036398501e-16)
(-0 4.503299698e-17 -1.154387741e-15)
(-0 2.715559102e-16 -1.964625913e-15)
(-0 3.307329702e-16 -1.15871029e-15)
(-0 2.893989403e-17 -5.711560138e-17)
(-0 8.530828909e-17 -9.50692314e-17)
(-0 9.064897416e-08 -4.680561015e-08)
(-0 4.674075868e-06 -1.520343393)
(-0 1.281974937e-07 -0.3285015102)
(-0 2.065984355e-10 -1.215768802e-10)
(-0 1.695532763e-15 -1.452320497e-15)
(-0 6.811132536e-16 -7.528506602e-16)
(-0 2.329797842e-16 -2.816556858e-16)
(-0 4.436645136e-17 -5.232689245e-17)
(-0 2.688067584e-17 -2.931445237e-17)
(-0 1.093316464e-17 -1.082462066e-17)
(-0 2.835315251e-18 -2.542209059e-18)
(-0 9.657470212e-19 -7.87056947e-19)
(-0 1.74007945e-19 -1.296326424e-19)
(-0 4.564764863e-20 -3.127328002e-20)
(-0 1.947245782e-20 -1.234106457e-20)
(-0 2.528402829e-21 -1.493575045e-21)
(-0 6.082371248e-22 -3.395477147e-22)
(-0 1.157369241e-22 -6.115258221e-23)
(-0 3.020963487e-23 -1.405474991e-23)
(-0 8.01777882e-24 1.382375659e-25)
(-0 3.983062817e-24 -1.801861751e-24)
(-0 1.023626882e-23 -2.559067205e-24)
(-0 4.562528169e-24 -1.403854821e-24)
(-0 -5.035320487e-24 -1.730891417e-24)
(-0 -3.58986904e-24 -4.4873363e-25)
(-0 7.265992037e-26 -4.843994691e-26)
(-0 0 0)
(-0 0 0)
(-0 0 -0)
(-0 -0 0)
(-0 -0 -0)
(-0 -0 0)
(-0 -0 0)
(-0 -0 0)
(-0 -0 0)
(-0 -0 0)
(-0 -0 -0)
(-0 -0 0)
(-0 -0 0)
(-0 -0 0)
(-0 -0 -0)
(-0 -0 -0)
(-0 -0 -0)
(-0 -0 -0)
(-0 -3.740098871e-16 -7.1441294e-14)
(-0 1.151778474e-14 -3.358908245e-13)
(-0 5.573290913e-14 -3.835872163e-13)
(-0 5.76551932e-14 -1.874632342e-13)
(-0 9.203885884e-15 -1.675639776e-14)
(-0 1.122457366e-15 -1.155740945e-15)
(-0 2.040914368e-07 -9.80169776e-08)
(-0 7.387360322e-06 -2.426870056)
(-0 2.050628823e-07 -0.6685154872)
(-0 5.202307072e-10 -4.23232353e-10)
(-0 3.94768889e-15 -4.506980559e-15)
(-0 1.538866141e-15 -2.015951276e-15)
(-0 4.390612041e-16 -5.65799712e-16)
(-0 4.172398748e-16 -4.922577747e-16)
(-0 1.48293947e-16 -1.565953226e-16)
(-0 6.71971525e-17 -6.339735335e-17)
(-0 1.657765202e-17 -1.405123091e-17)
(-0 5.546185653e-18 -4.255378792e-18)
(-0 1.400343968e-18 -9.800267985e-19)
(-0 1.896883588e-19 -1.219424061e-19)
(-0 7.130506054e-20 -4.237447443e-20)
(-0 1.799231188e-20 -9.94179217e-21)
(-0 2.15226234e-21 -1.110588572e-21)
(-0 3.024563073e-22 -1.458107517e-22)
(-0 1.708103104e-23 -7.569013755e-24)
(-0 1.415703547e-23 -2.696578184e-24)
(-0 5.831056067e-24 -3.332032039e-24)
(-0 6.473934914e-24 -1.142459102e-24)
(-0 3.884363938e-24 -3.039936995e-24)
(-0 -5.374979105e-24 -2.610704137e-24)
(-0 -3.119398147e-24 -1.746862962e-24)
(-0 6.850792492e-25 -0)
(-0 0 -0)
(-0 0 -0)
(-0 -0 0)
(-0 -0 -0)
(-0 -0 -0)
(-0 -0 -0)
(-0 -0 0)
(-0 -0 0)
(-0 -0 -0)
(-0 -0 -0)
(-0 -0 -0)
(-0 -0 -0)
(-0 -0 -0)
(-0 -0 -0)
(-0 -0 -0)
(-0 -0 -0)
(-0 -0 -0)
(-0 0 -0)
(-0 -4.148154193e-14 -3.554949978e-12)
(-0 1.99944813e-13 -7.178805731e-12)
(-0 9.351416102e-13 -6.158849708e-12)
(-0 1.028119028e-12 -3.100979268e-12)
(-0 3.50461465e-13 -5.878385035e-13)
(-0 6.22787219e-14 -5.930767686e-14)
(-0 3.475330376e-07 -1.562941735e-07)
(-0 1.132508285e-05 -4.018346099)
(-0 3.2100439e-07 -1.487704098)
(-0 1.0602723e-09 -1.217841163e-09)
(-0 1.07524654e-14 -1.531721094e-14)
(-0 2.079218272e-15 -2.974479562e-15)
(-0 2.933070948e-15 -3.805228024e-15)
(-0 1.287322965e-15 -1.469437751e-15)
(-0 5.763433588e-16 -5.781119059e-16)
(-0 2.039305276e-16 -1.811963976e-16)
(-0 4.818059705e-17 -3.830180964e-17)
(-0 1.219388509e-17 -8.757069541e-18)
(-0 3.199731761e-18 -2.093876951e-18)
(-0 7.73919226e-19 -4.649788841e-19)
(-0 2.221741914e-19 -1.233610699e-19)
(-0 5.443667326e-20 -2.809606582e-20)
(-0 7.579720131e-21 -3.651839955e-21)
(-0 1.28334171e-21 -5.785325005e-22)
(-0 2.075489968e-22 -8.71587525e-23)
(-0 3.053642608e-23 -1.164265075e-23)
(-0 7.847391347e-24 -2.665151778e-24)
(-0 1.051639253e-23 -8.480961714e-25)
(-0 3.074713322e-24 -1.989520385e-24)
(-0 -3.673196246e-24 -1.360443054e-24)
(-0 -2.1836558e-24 -4.367311599e-25)
(-0 7.47359181e-25 -2.802596929e-25)
(-0 0 0)
(-0 0 -0)
(-0 0 0)
(-0 -0 -0)
(-0 -0 0)
(-0 -0 0)
(-0 -0 -0)
(-0 -0 -0)
(-0 -0 -0)
(-0 -0 -0)
(-0 -0 -0)
(-0 -0 -0)
(-0 0 -0)
(-0 -0 -0)
(-0 0 -0)
(-0 -0 0)
(-0 -0 0)
(-0 0 0)
(-0 -4.599684732e-13 -2.164277887e-11)
(-0 3.244305299e-13 -2.522506867e-11)
(-0 2.936954304e-12 -1.979705203e-11)
(-0 4.753136551e-12 -1.359098943e-11)
(-0 3.375347666e-12 -5.281851115e-12)
(-0 9.659917001e-13 -8.642168208e-13)
(-0 4.9233168e-07 -2.099801276e-07)
(-0 1.69028908e-05 -7.150310561)
(-0 4.981647715e-07 -3.57159367)
(-0 2.005904942e-09 -3.116068073e-09)
(-0 2.808421173e-14 -4.563450603e-14)
(-0 1.532994424e-14 -2.238806164e-14)
(-0 8.2466693e-15 -1.036582223e-14)
(-0 3.653883602e-15 -3.95100326e-15)
(-0 1.362926648e-15 -1.28252061e-15)
(-0 2.946986972e-16 -2.445853601e-16)
(-0 1.503894203e-16 -1.114555993e-16)
(-0 2.669722317e-17 -1.785837565e-17)
(-0 1.328491782e-17 -8.094675398e-18)
(-0 1.699294352e-18 -9.505169128e-19)
(-0 1.998117885e-19 -1.032918823e-19)
(-0 9.309221775e-20 -4.473123176e-20)
(-0 2.891729508e-20 -1.297560385e-20)
(-0 4.99325388e-21 -2.096657909e-21)
(-0 5.39102367e-22 -2.108070173e-22)
(-0 1.012461669e-22 -3.805969049e-23)
(-0 1.53100556e-23 -2.006145217e-24)
(-0 8.6866304e-24 7.619851228e-25)
(-0 2.617424814e-24 -1.599537386e-24)
(-0 -4.859916635e-24 2.429958318e-24)
(-0 -3.022114075e-24 3.296851718e-24)
(-0 1.121038771e-24 1.121038771e-24)
(-0 0 0)
(-0 0 -0)
(-0 0 -0)
(-0 -0 0)
(-0 -0 -0)
(-0 -0 -0)
(-0 -0 -0)
(-0 -0 -0)
(-0 -0 -0)
(-0 -0 0)
(-0 -0 -0)
(-0 0 0)
(-0 -0 0)
(-0 -0 -0)
(-0 0 0)
(-0 0 -0)
(-0 -0 -0)
(-0 -0 0)
(-0 -1.246864805e-12 -3.339497999e-11)
(-0 -5.195364259e-13 -2.785834528e-11)
(-0 3.749783255e-12 -2.98661014e-11)
(-0 1.083892299e-11 -3.090167087e-11)
(-0 1.469730238e-11 -2.195611571e-11)
(-0 8.086568369e-12 -6.971560898e-12)
(-0 4.758089272e-07 -1.98158788e-07)
(-0 2.463064911e-05 -14.01104782)
(-0 7.794994509e-07 -8.940368849)
(-0 3.003833919e-09 -5.749946598e-09)
(-0 4.055653614e-14 -6.911666182e-14)
(-0 7.987593512e-14 -1.135736696e-13)
(-0 2.280719429e-14 -2.709713115e-14)
(-0 5.61113583e-15 -5.668326622e-15)
(-0 8.509749523e-16 -7.445899562e-16)
(-0 3.586458934e-16 -2.762515939e-16)
(-0 3.363756932e-16 -2.311993192e-16)
(-0 6.375651009e-17 -3.954486988e-17)
(-0 2.637187216e-17 -1.489979537e-17)
(-0 9.579835989e-18 -4.969329961e-18)
(-0 1.311399182e-18 -6.287696447e-19)
(-0 3.526094737e-19 -1.571702689e-19)
(-0 7.827440451e-20 -3.259872832e-20)
(-0 6.009116648e-21 -2.347544127e-21)
(-0 2.305804618e-21 -8.491848461e-22)
(-0 2.159982071e-22 -7.316381319e-23)
(-0 4.985150016e-23 -1.236099868e-23)
(-0 7.343286661e-24 4.196163806e-25)
(-0 5.334440107e-24 2.256878507e-24)
(-0 1.085381839e-24 4.961745551e-24)
(-0 -5.011622666e-25 3.633426433e-24)
(-0 -1.037998862e-25 9.687989383e-25)
(-0 -0 -0)
(-0 0 -0)
(-0 0 -0)
(-0 -0 -0)
(-0 -0 -0)
(-0 0 -0)
(-0 -0 -0)
(-0 -0 -0)
(-0 -0 -0)
(-0 -0 -0)
(-0 -0 0)
(-0 -0 -0)
(-0 -0 -0)
(-0 -0 0)
(-0 -0 0)
(-0 -0 -0)
(-0 -0 -0)
(-0 0 -0)
(-0 -1.189211619e-12 -1.874107894e-11)
(-0 -1.163508678e-12 -1.627227325e-11)
(-0 2.082013033e-12 -2.600670294e-11)
(-0 1.320918888e-11 -4.049214996e-11)
(-0 3.945341427e-11 -5.860605998e-11)
(-0 6.420886517e-11 -5.46566233e-11)
(-0 3.815548161e-07 -1.626332792e-07)
(-0 3.544197267e-05 -29.7862135)
(-0 1.260062371e-06 -22.49668448)
(-0 3.873231459e-09 -8.193775992e-09)
(-0 3.337400587e-13 -5.59764609e-13)
(-0 1.459308487e-13 -1.958072561e-13)
(-0 2.8250661e-14 -3.120810044e-14)
(-0 1.012444981e-14 -9.459660562e-15)
(-0 2.646271134e-15 -2.137738665e-15)
(-0 1.554142696e-15 -1.104686155e-15)
(-0 6.103822691e-16 -3.871504515e-16)
(-0 2.769853621e-16 -1.585713161e-16)
(-0 5.36496786e-17 -2.798456731e-17)
(-0 1.945242168e-17 -9.318304651e-18)
(-0 4.809604746e-18 -2.130062728e-18)
(-0 7.725979865e-19 -3.181668767e-19)
(-0 1.110112896e-19 -4.272230755e-20)
(-0 3.159390277e-20 -1.141463311e-20)
(-0 4.134529532e-21 -1.405987512e-21)
(-0 5.372104884e-22 -1.690627489e-22)
(-0 1.101312163e-22 -2.930320611e-23)
(-0 2.787992721e-23 -3.484990901e-25)
(-0 6.967458634e-24 6.03846415e-24)
(-0 -1.306028265e-24 4.081338329e-24)
(-0 -2.776431373e-24 -1.110572549e-25)
(-0 -4.843994691e-26 -6.919992416e-27)
(-0 0 -0)
(-0 0 -0)
(-0 0 -0)
(-0 -0 -0)
(-0 -0 0)
(-0 0 -0)
(-0 -0 -0)
(-0 -0 -0)
(-0 -0 -0)
(-0 0 -0)
(-0 -0 -0)
(-0 -0 -0)
(-0 -0 -0)
(-0 -0 -0)
(-0 0 0)
(-0 -0 0)
(-0 -0 0)
(-0 0 0)
(-0 -6.6425736e-13 -6.024051729e-12)
(-0 -1.336775075e-12 -7.933327638e-12)
(-0 -1.253536294e-13 -1.47004525e-11)
(-0 6.58685648e-12 -2.526619245e-11)
(-0 3.792700017e-11 -6.002006347e-11)
(-0 1.603921338e-10 -1.381979334e-10)
(-0 1.178365284e-06 -5.290060729e-07)
(-0 5.317500092e-05 -65.63605061)
(-0 2.153592284e-06 -55.32226052)
(-0 3.735996096e-09 -7.956420997e-09)
(-0 8.087756146e-13 -1.278805269e-12)
(-0 1.29320009e-13 -1.603787754e-13)
(-0 6.16528354e-14 -6.257885646e-14)
(-0 5.411297829e-14 -4.638536551e-14)
(-0 9.964248983e-15 -7.384150349e-15)
(-0 5.550284654e-15 -3.620368171e-15)
(-0 1.843868677e-15 -1.073734128e-15)
(-0 1.363913027e-16 -7.171960152e-17)
(-0 1.796731038e-16 -8.611760699e-17)
(-0 7.778121984e-17 -3.424886406e-17)
(-0 1.045108805e-17 -4.255811783e-18)
(-0 5.15418836e-19 -1.95213262e-19)
(-0 3.310490721e-19 -1.17197176e-19)
(-0 6.294527931e-20 -2.092023042e-20)
(-0 8.893656287e-21 -2.782609577e-21)
(-0 1.761655893e-21 -5.18953094e-22)
(-0 3.306271457e-22 -8.910302405e-23)
(-0 6.404578146e-23 -1.269873253e-23)
(-0 5.835109474e-24 -5.504820259e-25)
(-0 -5.786396789e-24 -2.980871073e-24)
(-0 -2.333176809e-24 -4.99966459e-25)
(-0 -0 0)
(-0 -0 -0)
(-0 0 0)
(-0 0 -0)
(-0 0 0)
(-0 -0 0)
(-0 -0 0)
(-0 -0 -0)
(-0 0 -0)
(-0 -0 -0)
(-0 -0 0)
(-0 -0 -0)
(-0 0 0)
(-0 -0 0)
(-0 -0 0)
(-0 -0 -0)
(-0 -0 -0)
(-0 -0 0)
(-0 0 0)
(-0 -5.35333564e-13 -2.511967101e-12)
(-0 -1.186547086e-12 -3.006605538e-12)
(-0 -9.539474031e-13 -4.453658173e-12)
(-0 2.231528569e-12 -1.988593359e-11)
(-0 4.201313614e-11 -8.022931575e-11)
(-0 2.877229764e-11 -2.638317646e-11)
(-0 3.910752746e-05 -2.378914402e-05)
(-0 8.870061734e-05 -145.0200933)
(-0 3.91936609e-06 -130.6484499)
(-0 4.984245429e-09 -1.000872928e-08)
(-0 1.817692636e-12 -2.634034232e-12)
(-0 9.188380111e-14 -1.037798935e-13)
(-0 2.731740798e-13 -2.523429728e-13)
(-0 8.997456469e-14 -7.023759222e-14)
(-0 6.112524528e-14 -4.129060658e-14)
(-0 1.031834862e-14 -6.140453373e-15)
(-0 1.50450185e-15 -7.998951124e-16)
(-0 1.294307067e-15 -6.217647182e-16)
(-0 6.810042615e-16 -2.983404234e-16)
(-0 1.61356243e-16 -6.496621758e-17)
(-0 8.856655881e-19 -3.298888158e-19)
(-0 3.754500546e-18 -1.301067728e-18)
(-0 9.536239476e-19 -3.089635094e-19)
(-0 1.694782959e-19 -5.155594462e-20)
(-0 2.567466661e-20 -7.35676145e-21)
(-0 5.627085502e-21 -1.523881206e-21)
(-0 7.276970151e-22 -1.860898952e-22)
(-0 1.084326209e-22 -2.879782344e-23)
(-0 1.467736448e-23 -1.074322555e-23)
(-0 -9.59261719e-25 -3.956954591e-24)
(-0 -1.383998483e-25 -1.729998104e-26)
(-0 -0 -0)
(-0 -0 0)
(-0 0 -0)
(-0 0 0)
(-0 0 0)
(-0 -0 0)
(-0 -0 0)
(-0 -0 0)
(-0 0 -0)
(-0 0 0)
(-0 -0 -0)
(-0 -0 0)
(-0 -0 -0)
(-0 -0 -0)
(-0 -0 -0)
(-0 -0 -0)
(-0 0 -0)
(-0 -0 0)
(-0 -0 0)
(-0 -1.041989605e-12 -2.407534587e-12)
(-0 -1.146969519e-12 -1.11862357e-12)
(-0 -1.210515579e-12 -1.529464732e-12)
(-0 -3.890855088e-13 -1.642786522e-12)
(-0 8.912522485e-12 -2.942501871e-11)
(-0 4.397955239e-10 -4.792098902e-10)
(-0 8.860203052e-05 -0.0001015162456)
(-0 9.483970415e-05 -314.7565748)
(-0 7.701673902e-06 -293.0239816)
(-0 1.385258249e-08 -2.512272024e-08)
(-0 3.165663298e-13 -4.122942717e-13)
(-0 1.030763026e-12 -1.047943779e-12)
(-0 2.614652157e-13 -2.17903279e-13)
(-0 1.495003815e-13 -1.055001777e-13)
(-0 6.755631667e-14 -4.131759292e-14)
(-0 1.829477217e-14 -9.869044201e-15)
(-0 1.331446793e-14 -6.422746185e-15)
(-0 4.906812365e-15 -2.14019893e-15)
(-0 1.479117268e-15 -5.886729537e-16)
(-0 2.269630439e-16 -8.305396912e-17)
(-0 5.463136882e-17 -1.850123117e-17)
(-0 1.394768613e-17 -4.395820073e-18)
(-0 1.96147176e-18 -5.78107085e-19)
(-0 3.901875311e-19 -1.079966033e-19)
(-0 6.022977984e-20 -1.57146421e-20)
(-0 9.089606123e-21 -2.243657746e-21)
(-0 7.694580339e-22 -1.801198373e-22)
(-0 5.846834543e-23 -1.308992808e-23)
(-0 6.399262753e-24 -1.637020704e-24)
(-0 1.176808242e-24 -6.361125632e-26)
(-0 0 -0)
(-0 -0 -0)
(-0 0 -0)
(-0 0 -0)
(-0 0 0)
(-0 0 -0)
(-0 -0 0)
(-0 -0 0)
(-0 -0 0)
(-0 -0 0)
(-0 0 -0)
(-0 -0 -0)
(-0 -0 -0)
(-0 -0 -0)
(-0 -0 -0)
(-0 -0 -0)
(-0 -0 -0)
(-0 0 -0)
(-0 -0 -0)
(-0 -0 -0)
(-0 -1.251094685e-11 -1.981631121e-11)
(-0 -4.686956992e-12 -2.089229199e-12)
(-0 -1.657684355e-12 -6.538431629e-13)
(-0 -4.767972047e-12 -4.068597563e-12)
(-0 -6.919676844e-13 -5.269141537e-12)
(-0 2.87849813e-10 -4.666425284e-10)
(-0 5.728442987e-05 -4.74834073e-05)
(-0 3.650435368e-05 -656.7300807)
(-0 1.593433734e-05 -618.3499409)
(-0 1.725890201e-10 -2.745481052e-10)
(-0 4.506195815e-12 -5.195334379e-12)
(-0 1.852249611e-12 -1.677249821e-12)
(-0 4.710233828e-13 -3.510651693e-13)
(-0 2.124219001e-13 -1.344365173e-13)
(-0 9.70498342e-14 -5.33357854e-14)
(-0 6.828614893e-14 -3.314701315e-14)
(-0 4.013535096e-14 -1.743958128e-14)
(-0 1.142752343e-14 -4.493211623e-15)
(-0 2.465097614e-16 -8.849446246e-17)
(-0 6.10438758e-16 -2.015870208e-16)
(-0 1.661791883e-16 -5.080590537e-17)
(-0 1.807181106e-17 -5.143417383e-18)
(-0 1.525672839e-18 -4.061711372e-19)
(-0 1.392763464e-19 -3.48298301e-20)
(-0 3.544796812e-20 -8.359034544e-21)
(-0 1.091467764e-20 -2.4335585e-21)
(-0 2.291003622e-21 -4.866915325e-22)
(-0 4.552128367e-22 -9.132976786e-23)
(-0 6.256019144e-23 -1.035576865e-23)
(-0 6.193444436e-24 -2.692801929e-25)
(-0 -1.913975332e-25 1.913975332e-25)
(-0 -0 -0)
(-0 -0 -0)
(-0 0 -0)
(-0 0 0)
(-0 0 -0)
(-0 -0 0)
(-0 -0 0)
(-0 -0 0)
(-0 -0 0)
(-0 0 -0)
(-0 -0 -0)
(-0 -0 -0)
(-0 -0 -0)
(-0 -0 -0)
(-0 -0 -0)
(-0 -0 -0)
(-0 0 -0)
(-0 -0 -0)
(-0 -0 -0)
(-0 -7.718854075e-12 -1.193258919e-11)
(-0 -2.135424684e-11 -8.948658547e-12)
(-0 -1.128748584e-11 -2.787502692e-12)
(-0 -8.600803414e-12 -3.017497826e-12)
(-0 -7.254015145e-12 -7.521863685e-12)
(-0 1.66888067e-11 -9.735786531e-11)
(-0 7.738559623e-06 -6.58848501e-06)
(-0 8.115233777e-05 -1289.236452)
(-0 3.333850881e-05 -1216.748472)
(-0 4.720388379e-10 -6.451630836e-10)
(-0 1.050760274e-11 -1.058405367e-11)
(-0 3.159382983e-12 -2.521364338e-12)
(-0 1.626093573e-12 -1.073648533e-12)
(-0 9.639975978e-13 -5.422319946e-13)
(-0 5.638302891e-14 -2.760026462e-14)
(-0 3.407193888e-13 -1.475405013e-13)
(-0 8.334985104e-14 -3.234396926e-14)
(-0 1.074397416e-14 -3.775748124e-15)
(-0 6.705477935e-15 -2.152852516e-15)
(-0 6.792852576e-16 -2.007172967e-16)
(-0 2.653862151e-17 -7.262641262e-18)
(-0 3.381133568e-17 -8.616399358e-18)
(-0 5.023186031e-18 -1.197710754e-18)
(-0 1.217160602e-18 -2.726734902e-19)
(-0 3.312138591e-19 -6.996961161e-20)
(-0 4.866686934e-20 -9.727950096e-21)
(-0 8.178582239e-21 -1.550977791e-21)
(-0 1.366668672e-21 -2.50901269e-22)
(-0 1.621842229e-22 -2.903651577e-23)
(-0 2.06704775e-23 -3.626399561e-24)
(-0 9.941996719e-25 2.886846334e-37)
(-0 -7.265992037e-26 -8.47699071e-26)
(-0 -0 -0)
(-0 0 -0)
(-0 0 0)
(-0 0 0)
(-0 -0 0)
(-0 -0 0)
(-0 -0 0)
(-0 -0 0)
(-0 -0 -0)
(-0 -0 -0)
(-0 -0 0)
(-0 -0 -0)
(-0 -0 0)
(-0 -0 -0)
(-0 -0 0)
(-0 -0 -0)
(-0 -0 0)
(-0 0 -0)
(-0 -1.814375667e-12 -3.145288852e-12)
(-0 -2.23899136e-11 -1.164433794e-11)
(-0 -4.69082294e-11 -1.468583896e-11)
(-0 -4.291572037e-11 -1.3314857e-11)
(-0 -5.012253398e-11 -2.495357409e-11)
(-0 -3.42163752e-11 -7.369681348e-11)
(-0 2.726621639e-06 -3.823927888e-06)
(-0 0.0001310462888 -2338.522355)
(-0 6.529764128e-05 -2213.914112)
(-0 1.441964444e-09 -1.667054722e-09)
(-0 7.333684158e-12 -6.373119421e-12)
(-0 5.322783434e-12 -3.70137439e-12)
(-0 2.660888383e-12 -1.539543793e-12)
(-0 8.174186048e-13 -4.043176157e-13)
(-0 2.128530155e-12 -9.183543426e-13)
(-0 3.993106473e-13 -1.526422536e-13)
(-0 1.461812971e-13 -5.013219954e-14)
(-0 4.255891343e-14 -1.322887604e-14)
(-0 6.963080786e-15 -1.978566268e-15)
(-0 1.545350431e-15 -4.043274589e-16)
(-0 4.967722848e-16 -1.204238131e-16)
(-0 1.117809419e-16 -2.524079077e-17)
(-0 1.829962176e-17 -3.867187343e-18)
(-0 3.289225522e-18 -6.532238077e-19)
(-0 5.904678168e-19 -1.106045058e-19)
(-0 1.049018681e-19 -1.860319394e-20)
(-0 1.209017637e-20 -2.03420474e-21)
(-0 2.089752969e-21 -3.360657688e-22)
(-0 3.283126781e-22 -5.372000144e-23)
(-0 3.871303975e-23 -7.429775306e-24)
(-0 1.516265126e-24 -3.682358163e-24)
(-0 -1.259857045e-37 -1.475196478e-24)
(-0 -0 -0)
(-0 0 -0)
(-0 0 0)
(-0 0 0)
(-0 -0 -0)
(-0 -0 0)
(-0 -0 0)
(-0 -0 0)
(-0 -0 -0)
(-0 0 -0)
(-0 0 -0)
(-0 0 -0)
(-0 -0 -0)
(-0 -0 -0)
(-0 -0 0)
(-0 -0 -0)
(-0 -0 -0)
(-0 -0 -0)
(-0 -1.474326009e-13 -2.935073937e-13)
(-0 -5.696737445e-12 -3.573879903e-12)
(-0 -3.802545256e-11 -1.48860381e-11)
(-0 -8.423562095e-11 -2.923960606e-11)
(-0 -9.562497298e-11 -3.872551377e-11)
(-0 -5.666902777e-11 -4.40420273e-11)
(-0 4.644736526e-07 -2.779964698e-06)
(-0 0.0001047216985 -3866.109914)
(-0 5.201134348e-05 -3696.55558)
(-0 2.951088222e-06 -2.850033293e-06)
(-0 3.468490177e-11 -2.5661663e-11)
(-0 9.009774649e-12 -5.388002445e-12)
(-0 5.699579391e-12 -2.852228719e-12)
(-0 1.17287237e-11 -5.035375581e-12)
(-0 1.385937843e-12 -5.202003308e-13)
(-0 9.625590524e-13 -3.206007274e-13)
(-0 1.815062812e-13 -5.42961348e-14)
(-0 7.174876232e-14 -1.946925594e-14)
(-0 1.106742091e-14 -2.747017291e-15)
(-0 9.291492644e-16 -2.124517721e-16)
(-0 5.675932706e-16 -1.202874944e-16)
(-0 6.342260124e-17 -1.252378453e-17)
(-0 2.078469322e-18 -3.842003424e-19)
(-0 3.433543899e-18 -5.965664408e-19)
(-0 5.815276273e-19 -9.531844993e-20)
(-0 1.548557734e-19 -2.402378132e-20)
(-0 1.81438861e-20 -2.673533662e-21)
(-0 3.473647118e-21 -4.881657776e-22)
(-0 3.711606167e-22 -5.420307326e-23)
(-0 6.475772014e-23 -1.37703198e-23)
(-0 5.648075279e-24 -6.816642578e-24)
(-0 -1.999219223e-24 -2.499024029e-24)
(-0 2.958296758e-25 -8.874890274e-25)
(-0 0 0)
(-0 0 0)
(-0 -0 -0)
(-0 -0 0)
(-0 -0 -0)
(-0 -0 0)
(-0 -0 0)
(-0 -0 0)
(-0 -0 0)
(-0 -0 -0)
(-0 0 -0)
(-0 0 -0)
(-0 -0 -0)
(-0 -0 -0)
(-0 -0 0)
(-0 -0 -0)
(-0 0 0)
(-0 -7.49114861e-15 -1.602789476e-14)
(-0 -5.849017743e-13 -4.000378435e-13)
(-0 -7.41880414e-12 -3.216714956e-12)
(-0 -4.242189436e-11 -1.601622192e-11)
(-0 -9.684206569e-11 -3.944652283e-11)
(-0 -3.793164411e-11 -1.96183226e-11)
(-0 -1.099699971e-06 -2.089283135e-06)
(-0 1.634503052e-05 -5772.37658)
(-0 -7.579455232e-05 -5622.484848)
(-0 7.378376293e-05 -6.535147349e-05)
(-0 2.981956264e-11 -1.849113994e-11)
(-0 1.155353325e-11 -5.84620192e-12)
(-0 3.990495123e-11 -1.698942303e-11)
(-0 1.676634883e-12 -6.144466321e-13)
(-0 4.925840979e-12 -1.581672972e-12)
(-0 2.035092816e-12 -5.807283628e-13)
(-0 9.455459893e-14 -2.42585613e-14)
(-0 1.040815276e-13 -2.424065789e-14)
(-0 3.086260234e-14 -6.578567664e-15)
(-0 6.798875837e-15 -1.335631041e-15)
(-0 1.475265975e-15 -2.687063402e-16)
(-0 4.864811606e-16 -8.258514099e-17)
(-0 6.922145328e-17 -1.100264379e-17)
(-0 8.909793967e-18 -1.331389469e-18)
(-0 1.644224934e-18 -2.318217286e-19)
(-0 1.907304466e-19 -2.545189625e-20)
(-0 1.987544597e-20 -2.517689276e-21)
(-0 3.952232499e-21 -4.78700868e-22)
(-0 9.435676364e-22 -1.117352034e-22)
(-0 9.132638854e-23 -9.882333088e-24)
(-0 1.155249833e-23 -2.100454242e-24)
(-0 1.291933349e-24 -2.870962998e-25)
(-0 1.30441857e-24 -3.598396057e-25)
(-0 0 -0)
(-0 0 -0)
(-0 -0 -0)
(-0 -0 0)
(-0 -0 -0)
(-0 -0 -0)
(-0 -0 -0)
(-0 -0 0)
(-0 -0 -0)
(-0 -0 0)
(-0 -0 0)
(-0 -0 -0)
(-0 -0 0)
(-0 -0 -0)
(-0 -0 0)
(-0 0 0)
(-0 -0 0)
(-0 -9.536370544e-17 -2.012924282e-16)
(-0 -3.208574874e-14 -2.158942255e-14)
(-0 -6.217226766e-13 -2.640198805e-13)
(-0 -5.909836185e-12 -2.159204826e-12)
(-0 -3.106287669e-11 -1.183393554e-11)
(-0 -5.275210381e-11 -2.340232771e-11)
(-0 -1.390010062e-06 -1.02363586e-06)
(-0 -0.000159484183 -7734.894304)
(-0 8.828167905e-05 -7726.686497)
(-0 0.0002479187849 -0.0002295522718)
(-0 0 -0)
(-0 7.496823983e-11 -3.14153409e-11)
(-0 3.003903273e-11 -1.064342929e-11)
(-0 2.507121214e-11 -7.669821229e-12)
(-0 1.642755088e-12 -4.411965841e-13)
(-0 1.581578181e-12 -3.779949678e-13)
(-0 6.523576065e-13 -1.403092451e-13)
(-0 3.947175819e-14 -7.712147549e-15)
(-0 1.505949059e-14 -2.694337537e-15)
(-0 6.785460098e-15 -1.119294385e-15)
(-0 6.610178214e-16 -1.011281411e-16)
(-0 3.407521396e-16 -4.859978475e-17)
(-0 8.396430443e-17 -1.121500599e-17)
(-0 1.563434689e-17 -1.963537557e-18)
(-0 3.252200227e-18 -3.85432761e-19)
(-0 3.55811118e-19 -3.991954787e-20)
(-0 3.169331758e-20 -3.376151294e-21)
(-0 3.923091497e-21 -3.978884644e-22)
(-0 1.296883355e-21 -1.249153232e-22)
(-0 1.388453503e-22 -8.327322108e-24)
(-0 1.706688576e-23 3.454012593e-24)
(-0 -1.218940508e-24 2.133145889e-24)
(-0 1.280198597e-25 -6.400992985e-26)
(-0 0 -0)
(-0 0 -0)
(-0 0 -0)
(-0 -0 -0)
(-0 -0 -0)
(-0 -0 -0)
(-0 -0 -0)
(-0 -0 -0)
(-0 -0 0)
(-0 -0 -0)
(-0 -0 -0)
(-0 -0 0)
(-0 -0 -0)
(-0 -0 0)
(-0 0 -0)
(-0 0 -0)
(-0 -0 -0)
(-0 -1.029784315e-19 -1.974185604e-19)
(-0 -4.095987572e-16 -2.487893565e-16)
(-0 -1.667627984e-14 -6.34256369e-15)
(-0 -2.120451532e-13 -6.868558325e-14)
(-0 -3.382309347e-12 -1.126602468e-12)
(-0 -5.648527028e-12 -2.150789823e-12)
(-0 -7.282915976e-07 -3.383492212e-07)
(-0 -0.0004102143117 -9202.714889)
(-0 0.000723433745 -9485.988205)
(-0 0.0003918830248 -0.0002920795601)
(-0 4.96269665e-11 -2.015008459e-11)
(-0 8.047486101e-11 -2.708573149e-11)
(-0 5.455267455e-11 -1.559076999e-11)
(-0 1.368964338e-11 -3.386874816e-12)
(-0 7.518611861e-12 -1.635826754e-12)
(-0 5.659883507e-13 -1.097105118e-13)
(-0 2.692607559e-13 -4.700837415e-14)
(-0 1.105266062e-13 -1.753948399e-14)
(-0 3.602866278e-14 -5.23775852e-15)
(-0 5.954930621e-15 -7.984482573e-16)
(-0 3.909030524e-16 -4.862396171e-17)
(-0 3.531849183e-16 -4.096513228e-17)
(-0 1.085167168e-16 -1.178947549e-17)
(-0 1.615790037e-17 -1.650825534e-18)
(-0 3.728020463e-18 -3.594643197e-19)
(-0 5.012088853e-19 -4.575591854e-20)
(-0 4.970922283e-20 -4.309208215e-21)
(-0 9.091809291e-21 -7.474680724e-22)
(-0 9.957914527e-22 -7.621579788e-23)
(-0 2.022454284e-22 -1.229509653e-23)
(-0 2.65572009e-23 3.911525713e-24)
(-0 -1.943843607e-24 3.693302853e-24)
(-0 6.366393023e-25 1.671178169e-24)
(-0 0 0)
(-0 0 -0)
(-0 0 -0)
(-0 0 -0)
(-0 -0 -0)
(-0 -0 -0)
(-0 -0 -0)
(-0 -0 -0)
(-0 -0 -0)
(-0 -0 0)
(-0 0 -0)
(-0 -0 -0)
(-0 0 -0)
(-0 -0 -0)
(-0 -0 -0)
(-0 -0 -0)
(-0 -0 -0)
(-0 -1.498816309e-26 -2.392129212e-26)
(-0 -4.375853805e-19 -2.202255898e-19)
(-0 -6.372493088e-17 -1.999412889e-17)
(-0 -1.847786159e-15 -4.916157275e-16)
(-0 -5.896565894e-14 -1.593426978e-14)
(-0 -7.342887717e-13 -2.247255404e-13)
(-0 -2.142698444e-07 -7.194859715e-08)
(-0 -0.0006980663497 -9647.096904)
(-0 0.00116902615 -10226.68455)
(-0 0.000431874038 -0.0002120373833)
(-0 1.316891785e-10 -4.073432733e-11)
(-0 1.359069138e-11 -3.504766608e-12)