/*--------------------------------*- C++ -*----------------------------------*\
  =========                 |
  \\      /  F ield         | OpenFOAM: The Open Source CFD Toolbox
   \\    /   O peration     | Website:  https://openfoam.org
    \\  /    A nd           | Version:  6
     \\/     M anipulation  |
\*---------------------------------------------------------------------------*/
FoamFile
{
    version     2.0;
    format      ascii;
    class       volScalarField;
    location    "0.04";
    object      Num_divU;
}
// * * * * * * * * * * * * * * * * * * * * * * * * * * * * * * * * * * * * * //

dimensions      [0 0 -1 0 0 0 0];

internalField   nonuniform List<scalar> 
2500
(
2.513353825e-09
-1.513038997e-08
-5.033766833e-08
-4.774467252e-08
-3.118873873e-08
-2.074282335e-08
1.912794277e-08
3.047260415e-08
-3.324244874e-08
-3.834204004e-22
-2.30835614e-17
-5.190518498e-17
-7.89949035e-17
-1.053678274e-16
-1.314290022e-16
-1.572447706e-16
-1.827935903e-16
-2.080354491e-16
-2.329283504e-16
-2.574320334e-16
-2.8150836e-16
-3.051206939e-16
-3.282335187e-16
-3.508125377e-16
-3.728246805e-16
-3.942381851e-16
-4.150225847e-16
-4.351491615e-16
-4.545907057e-16
-4.733217595e-16
-4.913184653e-16
-5.085587338e-16
-5.250219996e-16
-5.406894045e-16
-5.55543622e-16
-5.695688423e-16
-5.827506293e-16
-5.950760145e-16
-6.065333095e-16
-6.171119865e-16
-6.268027659e-16
-6.355975198e-16
-6.434891314e-16
-6.504716669e-16
-6.56540241e-16
-6.616910482e-16
-6.659215259e-16
-6.692301779e-16
-6.716158409e-16
-6.730734454e-16
-2.445508931e-08
-6.285102974e-08
-9.000267327e-08
-4.804208129e-08
5.416672185e-08
1.426569356e-07
2.205409304e-07
3.041815262e-07
1.369168946e-07
-4.609448687e-17
-9.65832517e-17
-1.463475679e-16
-1.937541343e-16
-2.403525045e-16
-2.864588557e-16
-3.32069771e-16
-3.771221045e-16
-4.215437815e-16
-4.652634428e-16
-5.082123978e-16
-5.503248075e-16
-5.91537475e-16
-6.317892385e-16
-6.710211654e-16
-7.091767425e-16
-7.462021771e-16
-7.82046372e-16
-8.166610948e-16
-8.500011377e-16
-8.820241209e-16
-9.12690807e-16
-9.419647372e-16
-9.698123978e-16
-9.962030525e-16
-1.021108638e-15
-1.044503653e-15
-1.066364951e-15
-1.086671843e-15
-1.105405766e-15
-1.122550298e-15
-1.138091045e-15
-1.152015645e-15
-1.164313714e-15
-1.174977085e-15
-1.184000024e-15
-1.191380067e-15
-1.197120313e-15
-1.201236126e-15
-1.203777129e-15
-5.313938323e-16
-2.140982389e-08
-5.189601342e-08
-6.48756663e-08
-2.470796532e-08
-3.385317077e-09
-4.647332751e-08
-9.845925661e-08
-7.488695642e-08
1.194582633e-07
-3.774959566e-17
-8.044533529e-17
-1.234449315e-16
-1.646385569e-16
-2.052368501e-16
-2.454396536e-16
-2.852223824e-16
-3.245261729e-16
-3.632878361e-16
-4.014446307e-16
-4.389359383e-16
-4.757038893e-16
-5.116929187e-16
-5.468495815e-16
-5.811225694e-16
-6.144624482e-16
-6.46822141e-16
-6.78156983e-16
-7.084246531e-16
-7.375855067e-16
-7.656024945e-16
-7.924410799e-16
-8.180693594e-16
-8.42457921e-16
-8.655796859e-16
-8.874100482e-16
-9.079265504e-16
-9.271088767e-16
-9.449387451e-16
-9.613997821e-16
-9.764774425e-16
-9.901589651e-16
-1.002433265e-15
-1.01329092e-15
-1.022724103e-15
-1.030726669e-15
-1.037293871e-15
-1.042421633e-15
-1.046103003e-15
-1.048311034e-15
-5.176891306e-16
-1.612813781e-08
-5.03526897e-08
-6.779117351e-08
2.067153072e-08
9.37373363e-08
8.803771722e-08
3.597469374e-08
9.053023248e-08
-3.874919629e-08
-3.715225703e-17
-7.900032867e-17
-1.212897137e-16
-1.618680348e-16
-2.01888432e-16
-2.415278114e-16
-2.807553064e-16
-3.195112152e-16
-3.577332523e-16
-3.953596073e-16
-4.323303025e-16
-4.685879822e-16
-5.040777916e-16
-5.387470713e-16
-5.725452424e-16
-6.054237461e-16
-6.373361985e-16
-6.682385468e-16
-6.980891503e-16
-7.268488981e-16
-7.544812357e-16
-7.809521616e-16
-8.062301017e-16
-8.302860964e-16
-8.530934891e-16
-8.74627907e-16
-8.94867235e-16
-9.13791369e-16
-9.313822454e-16
-9.476236877e-16
-9.625012692e-16
-9.760022486e-16
-9.881155379e-16
-9.988316072e-16
-1.0081422e-15
-1.016040433e-15
-1.022520084e-15
-1.027574896e-15
-1.03119622e-15
-1.033370186e-15
-5.164659062e-16
-1.315906491e-09
-5.411151329e-08
-1.137172177e-07
-2.594957491e-08
3.181014955e-08
1.143642682e-08
1.372931403e-08
3.254073489e-07
-1.629343697e-07
-3.711783323e-17
-7.890225082e-17
-1.211302922e-16
-1.616558964e-16
-2.016285053e-16
-2.412229683e-16
-2.804074346e-16
-3.191211657e-16
-3.573016405e-16
-3.948870281e-16
-4.318172647e-16
-4.68034759e-16
-5.034846811e-16
-5.381144748e-16
-5.718737215e-16
-6.047140421e-16
-6.365892484e-16
-6.674553508e-16
-6.972708168e-16
-7.259966361e-16
-7.535962438e-16
-7.800357048e-16
-8.052835811e-16
-8.293108545e-16
-8.520908944e-16
-8.735994341e-16
-8.938142585e-16
-9.127153443e-16
-9.302845517e-16
-9.465056844e-16
-9.613642841e-16
-9.74847527e-16
-9.869441837e-16
-9.976444759e-16
-1.006939883e-15
-1.014822971e-15
-1.021286974e-15
-1.02632527e-15
-1.02993076e-15
-1.032095775e-15
-5.164197281e-16
2.305039877e-08
-7.561122414e-08
-1.836812683e-07
-7.986111728e-08
3.844108209e-08
5.924715603e-08
5.257623161e-08
3.379838083e-07
-5.051523416e-08
-3.712520778e-17
-7.891221156e-17
-1.211480792e-16
-1.616803084e-16
-2.016576834e-16
-2.412559419e-16
-2.804446316e-16
-3.191627441e-16
-3.57347685e-16
-3.949376294e-16
-4.318722895e-16
-4.680938514e-16
-5.035471476e-16
-5.381796101e-16
-5.719409505e-16
-6.047828888e-16
-6.366593021e-16
-6.675263592e-16
-6.973425174e-16
-7.260688074e-16
-7.536687703e-16
-7.801083775e-16
-8.053562331e-16
-8.293832779e-16
-8.521629561e-16
-8.736709182e-16
-8.938849302e-16
-9.127849666e-16
-9.303528366e-16
-9.465722985e-16
-9.614288014e-16
-9.749094862e-16
-9.870030069e-16
-9.976994115e-16
-1.006990009e-15
-1.014867121e-15
-1.021323931e-15
-1.026354108e-15
-1.029951755e-15
-1.032111684e-15
-5.164840581e-16
6.832355614e-08
-1.609178552e-07
-3.255035901e-07
-2.884279994e-07
-1.129019048e-07
1.487153557e-07
2.367551064e-07
-8.846984154e-08
8.830281786e-08
-3.714106311e-17
-7.892798867e-17
-1.211736302e-16
-1.617183017e-16
-2.017084467e-16
-2.41317119e-16
-2.805153653e-16
-3.192421603e-16
-3.574350544e-16
-3.950327421e-16
-4.319752822e-16
-4.682045388e-16
-5.036650726e-16
-5.383041469e-16
-5.720713378e-16
-6.04918498e-16
-6.367996788e-16
-6.676710255e-16
-6.974911468e-16
-7.262210754e-16
-7.538243159e-16
-7.802669487e-16
-8.05517489e-16
-8.295469567e-16
-8.523286979e-16
-8.738383413e-16
-8.940536914e-16
-9.129546384e-16
-9.305229827e-16
-9.467424152e-16
-9.615983979e-16
-9.750779184e-16
-9.871696189e-16
-9.978634681e-16
-1.007150653e-15
-1.015023511e-15
-1.0214753e-15
-1.026500102e-15
-1.030092736e-15
-1.032249178e-15
-5.165576257e-16
2.017527061e-07
-3.218788157e-07
-5.183577399e-07
-6.223983575e-07
-6.606618255e-07
-1.288467072e-07
3.779773088e-07
-2.611676362e-07
7.315489204e-09
-3.715503797e-17
-7.895220633e-17
-1.212024529e-16
-1.61753583e-16
-2.017546863e-16
-2.41374392e-16
-2.805839559e-16
-3.193210877e-16
-3.575225733e-16
-3.951279162e-16
-4.320777899e-16
-4.683143829e-16
-5.037820499e-16
-5.384277919e-16
-5.722010801e-16
-6.05053763e-16
-6.3693989e-16
-6.67815769e-16
-6.976400182e-16
-7.263737268e-16
-7.539804552e-16
-7.804262477e-16
-8.056796504e-16
-8.297116556e-16
-8.524955926e-16
-8.740070636e-16
-8.942238616e-16
-9.13125819e-16
-9.306947128e-16
-9.46914252e-16
-9.617698042e-16
-9.752483789e-16
-9.873385472e-16
-9.980302254e-16
-1.007314625e-15
-1.015184143e-15
-1.021632166e-15
-1.026653081e-15
-1.030242275e-15
-1.032396188e-15
-5.166301048e-16
5.29717687e-07
-2.419892986e-07
-4.276689663e-07
-5.268302752e-07
-9.303079308e-07
-5.825827769e-07
9.784996342e-08
1.206258244e-07
-9.724800052e-08
-3.716010961e-17
-7.89786724e-17
-1.212391072e-16
-1.617944282e-16
-2.018012598e-16
-2.414276532e-16
-2.806464271e-16
-3.193941216e-16
-3.576051282e-16
-3.952183416e-16
-4.321751809e-16
-4.684184502e-16
-5.038927043e-16
-5.385447301e-16
-5.723238942e-16
-6.051819159e-16
-6.370729107e-16
-6.679532129e-16
-6.977815004e-16
-7.265188875e-16
-7.541289488e-16
-7.805778226e-16
-8.058339694e-16
-8.298684169e-16
-8.526544507e-16
-8.741676904e-16
-8.943858475e-16
-9.132887445e-16
-9.308581849e-16
-9.470778138e-16
-9.619329726e-16
-9.754107255e-16
-9.874995363e-16
-9.981894047e-16
-1.007471554e-15
-1.015338433e-15
-1.021783581e-15
-1.02680162e-15
-1.030388242e-15
-1.032540286e-15
-5.166997037e-16
6.368642759e-07
2.358644857e-07
1.273870091e-07
-9.565884239e-09
-5.348781451e-07
-6.095397429e-07
-4.767337587e-07
2.054883284e-07
1.436960884e-08
-3.716398414e-17
-7.899162919e-17
-1.212691255e-16
-1.618365885e-16
-2.01851183e-16
-2.41482011e-16
-2.807057458e-16
-3.194613798e-16
-3.576813651e-16
-3.95302686e-16
-4.322664869e-16
-4.685160281e-16
-5.03996345e-16
-5.386542329e-16
-5.724389012e-16
-6.053020351e-16
-6.371976871e-16
-6.680822363e-16
-6.979144005e-16
-7.266553041e-16
-7.542686143e-16
-7.807203718e-16
-8.059791568e-16
-8.300158789e-16
-8.528039207e-16
-8.743187559e-16
-8.945381815e-16
-9.134419972e-16
-9.310119338e-16
-9.47231658e-16
-9.620864987e-16
-9.755635212e-16
-9.87651235e-16
-9.983395882e-16
-1.007619879e-15
-1.015484669e-15
-1.021927563e-15
-1.026943422e-15
-1.030528115e-15
-1.032678693e-15
-5.16765537e-16
-7.06837414e-07
-2.036457089e-07
1.60692977e-07
-4.138191596e-08
-1.167657344e-07
-1.611750394e-07
-4.852302822e-07
-3.648226784e-07
9.525805927e-08
-3.71771884e-17
-7.900129475e-17
-1.212867426e-16
-1.618684207e-16
-2.018962177e-16
-2.415360955e-16
-2.807638572e-16
-3.195245241e-16
-3.577515453e-16
-3.953803157e-16
-4.323509129e-16
-4.686065311e-16
-5.040924968e-16
-5.387557877e-16
-5.725456387e-16
-6.054136061e-16
-6.373136789e-16
-6.68202269e-16
-6.9803813e-16
-7.267823737e-16
-7.543987135e-16
-7.808531996e-16
-8.061144239e-16
-8.301532998e-16
-8.529431404e-16
-8.744595191e-16
-8.946801036e-16
-9.135847522e-16
-9.311551497e-16
-9.4737499e-16
-9.622295984e-16
-9.757060084e-16
-9.877927842e-16
-9.984798985e-16
-1.007758722e-15
-1.015621813e-15
-1.022062971e-15
-1.027077117e-15
-1.030660314e-15
-1.032809643e-15
-5.168269175e-16
-1.884037665e-06
-8.486340013e-07
-1.011738394e-07
-4.407569396e-07
-4.354025076e-07
-1.740300695e-07
2.274885927e-07
-3.84744525e-07
-2.177794501e-08
-3.719082293e-17
-7.902543724e-17
-1.213088867e-16
-1.618953563e-16
-2.019320157e-16
-2.41584939e-16
-2.808195578e-16
-3.195843537e-16
-3.578164258e-16
-3.954513305e-16
-4.324280567e-16
-4.686894094e-16
-5.0418067e-16
-5.388490471e-16
-5.726437038e-16
-6.055161636e-16
-6.374203926e-16
-6.683127814e-16
-6.981520437e-16
-7.268994561e-16
-7.545185962e-16
-7.809756179e-16
-8.062391193e-16
-8.302799621e-16
-8.530714758e-16
-8.745892104e-16
-8.948108634e-16
-9.137162462e-16
-9.312871055e-16
-9.47507021e-16
-9.623614561e-16
-9.758373926e-16
-9.879234102e-16
-9.98609543e-16
-1.007887131e-15
-1.015748922e-15
-1.022188655e-15
-1.027201405e-15
-1.030783358e-15
-1.032931695e-15
-5.168830939e-16
-9.841711291e-07
-9.538692055e-07
-4.023834795e-07
-5.396500582e-07
-9.983321855e-07
-1.179025379e-06
6.811005164e-09
2.954404632e-07
1.958013613e-08
-3.719428234e-17
-7.904751732e-17
-1.213375895e-16
-1.619265254e-16
-2.019627312e-16
-2.416260859e-16
-2.808699501e-16
-3.19639977e-16
-3.578762992e-16
-3.955159119e-16
-4.324977871e-16
-4.687642554e-16
-5.042604482e-16
-5.389334538e-16
-5.727325276e-16
-6.056091781e-16
-6.375172525e-16
-6.684131239e-16
-6.982556057e-16
-7.27005864e-16
-7.546276159e-16
-7.810869263e-16
-8.063524632e-16
-8.303950676e-16
-8.53188068e-16
-8.747070352e-16
-8.94929631e-16
-9.138356689e-16
-9.314069287e-16
-9.476269752e-16
-9.624812911e-16
-9.759568029e-16
-9.880422095e-16
-9.987275077e-16
-1.008004121e-15
-1.015864774e-15
-1.022303403e-15
-1.027315038e-15
-1.030895938e-15
-1.033043379e-15
-5.169334052e-16
4.659721619e-07
-4.562354649e-07
-4.215255418e-07
-2.082804019e-08
-4.584856259e-07
-1.275257365e-06
-1.070196167e-06
8.603553803e-08
1.05924486e-07
-3.719717024e-17
-7.905616025e-17
-1.213613676e-16
-1.619603128e-16
-2.019936746e-16
-2.416608447e-16
-2.809127385e-16
-3.19689151e-16
-3.579300856e-16
-3.955738128e-16
-4.325599094e-16
-4.688307847e-16
-5.043313454e-16
-5.390085863e-16
-5.728117061e-16
-6.056921372e-16
-6.376037203e-16
-6.685027908e-16
-6.983481303e-16
-7.271009551e-16
-7.547250093e-16
-7.811863738e-16
-8.064536736e-16
-8.304978022e-16
-8.532921281e-16
-8.748121383e-16
-8.950355498e-16
-9.139421637e-16
-9.315137539e-16
-9.477339351e-16
-9.625881271e-16
-9.760633087e-16
-9.881482132e-16
-9.988328251e-16
-1.008108632e-15
-1.01596836e-15
-1.022406014e-15
-1.02741668e-15
-1.030996702e-15
-1.033143333e-15
-5.169771868e-16
4.731243791e-07
-3.403291482e-07
-6.461596261e-07
-3.82187773e-08
2.418056645e-07
-3.475390153e-07
-1.390994271e-06
-4.970349078e-07
-1.177979728e-07
-3.720600989e-17
-7.906152888e-17
-1.213771899e-16
-1.619893741e-16
-2.020272424e-16
-2.416938665e-16
-2.809493163e-16
-3.197309596e-16
-3.579765073e-16
-3.956240728e-16
-4.326138745e-16
-4.688885129e-16
-5.043928571e-16
-5.390738758e-16
-5.728805972e-16
-6.057644575e-16
-6.376791645e-16
-6.685810887e-16
-6.984289538e-16
-7.271840107e-16
-7.548100425e-16
-7.81273148e-16
-8.065419521e-16
-8.305873935e-16
-8.533827783e-16
-8.749036601e-16
-8.951277392e-16
-9.140348237e-16
-9.316067052e-16
-9.478269548e-16
-9.626810406e-16
-9.76155977e-16
-9.882404018e-16
-9.989244476e-16
-1.00819951e-15
-1.016058476e-15
-1.022495269e-15
-1.027505145e-15
-1.031084326e-15
-1.033230246e-15
-5.170137989e-16
2.264358215e-07
-5.253745005e-07
-9.953269464e-07
-8.204929492e-07
3.547410011e-09
1.203466911e-07
-6.693540002e-07
-2.918365809e-07
-4.88954176e-07
-3.721860693e-17
-7.907336516e-17
-1.213906424e-16
-1.620069334e-16
-2.020579694e-16
-2.417265353e-16
-2.809827744e-16
-3.197670624e-16
-3.580157561e-16
-3.956663722e-16
-4.326591659e-16
-4.689369459e-16
-5.044445869e-16
-5.391288235e-16
-5.729387368e-16
-6.058255265e-16
-6.377429674e-16
-6.686472975e-16
-6.984973297e-16
-7.272542889e-16
-7.548819585e-16
-7.813464573e-16
-8.066164678e-16
-8.306629371e-16
-8.53459164e-16
-8.749807311e-16
-8.952053135e-16
-9.141127464e-16
-9.316848017e-16
-9.479050891e-16
-9.627590082e-16
-9.762336897e-16
-9.883177102e-16
-9.99001233e-16
-1.00827568e-15
-1.016133954e-15
-1.022570038e-15
-1.027579136e-15
-1.031157597e-15
-1.033302809e-15
-5.170426143e-16
1.189243081e-07
-5.027867685e-07
-7.30493757e-07
-9.585469349e-07
-5.507375641e-07
-1.009957198e-07
1.419258113e-09
5.848271707e-07
-5.201283419e-07
-3.722879815e-17
-7.909399256e-17
-1.214111402e-16
-1.620176574e-16
-2.020794544e-16
-2.417539411e-16
-2.810121848e-16
-3.197981424e-16
-3.580485758e-16
-3.957009613e-16
-4.326957235e-16
-4.689757908e-16
-5.044859959e-16
-5.391729984e-16
-5.729855194e-16
-6.058748055e-16
-6.377944671e-16
-6.687008029e-16
-6.985525419e-16
-7.273110201e-16
-7.549399487e-16
-7.814055257e-16
-8.066764121e-16
-8.307236146e-16
-8.535204434e-16
-8.750424222e-16
-8.952673761e-16
-9.141750083e-16
-9.317471267e-16
-9.479673807e-16
-9.628211064e-16
-9.762955132e-16
-9.883791071e-16
-9.990621372e-16
-1.008336041e-15
-1.01619366e-15
-1.022629073e-15
-1.027637474e-15
-1.031215258e-15
-1.033359829e-15
-5.1706304e-16
2.983022841e-07
-2.568616154e-07
-4.783817036e-07
-5.395650711e-07
-5.197082731e-07
-6.926005097e-07
-1.592793253e-07
9.851974764e-07
8.291891213e-08
-3.723159955e-17
-7.911048367e-17
-1.214360658e-16
-1.620329549e-16
-2.020951436e-16
-2.417735295e-16
-2.810347744e-16
-3.198228698e-16
-3.580746771e-16
-3.957279727e-16
-4.327236166e-16
-4.690049389e-16
-5.045168776e-16
-5.392058442e-16
-5.730204407e-16
-6.059116471e-16
-6.378330784e-16
-6.687409213e-16
-6.98593924e-16
-7.27353444e-16
-7.549832113e-16
-7.814495099e-16
-8.067209534e-16
-8.307685756e-16
-8.535657275e-16
-8.75087963e-16
-8.95313005e-16
-9.142206793e-16
-9.317927403e-16
-9.480128293e-16
-9.628663424e-16
-9.763404066e-16
-9.88423584e-16
-9.991060807e-16
-1.008379408e-15
-1.01623645e-15
-1.022671222e-15
-1.027679002e-15
-1.03125615e-15
-1.033400062e-15
-5.170744775e-16
2.976145294e-07
-6.841168535e-09
-3.018561084e-07
-1.837637169e-07
-2.882911125e-08
-7.1665182e-07
-8.934009241e-07
-8.972152377e-08
8.222493089e-07
-3.723024433e-17
-7.911253309e-17
-1.214497396e-16
-1.620514067e-16
-2.021101041e-16
-2.417878859e-16
-2.810500847e-16
-3.198397256e-16
-3.580927539e-16
-3.95746632e-16
-4.327425483e-16
-4.690242813e-16
-5.045369951e-16
-5.392271204e-16
-5.730430274e-16
-6.05935526e-16
-6.378581137e-16
-6.687669166e-16
-6.98620707e-16
-7.273808125e-16
-7.550110564e-16
-7.814776442e-16
-8.067492963e-16
-8.307970503e-16
-8.535942155e-16
-8.751164324e-16
-8.953413859e-16
-9.142488985e-16
-9.318207331e-16
-9.480405426e-16
-9.628937151e-16
-9.763673482e-16
-9.884500751e-16
-9.991320654e-16
-1.008404834e-15
-1.016261264e-15
-1.022695395e-15
-1.027702546e-15
-1.031279084e-15
-1.033422405e-15
-5.170764331e-16
9.802117831e-08
7.619787326e-08
-1.889649002e-07
-8.238918803e-08
4.004526159e-07
2.193935275e-07
-8.463756374e-07
-1.35880996e-06
8.791842854e-07
-3.722976577e-17
-7.911141925e-17
-1.214490555e-16
-1.620628995e-16
-2.021218482e-16
-2.417984548e-16
-2.810592682e-16
-3.198485162e-16
-3.581018192e-16
-3.957559589e-16
-4.327517927e-16
-4.690333536e-16
-5.045460419e-16
-5.392364519e-16
-5.730528381e-16
-6.059459296e-16
-6.37869038e-16
-6.687782183e-16
-6.98632244e-16
-7.273924758e-16
-7.550226873e-16
-7.814891981e-16
-8.067606788e-16
-8.308081786e-16
-8.536050818e-16
-8.751269865e-16
-8.953516278e-16
-9.142587818e-16
-9.318302487e-16
-9.480495922e-16
-9.62902286e-16
-9.763754335e-16
-9.884575942e-16
-9.99139009e-16
-1.008411223e-15
-1.016267004e-15
-1.022700553e-15
-1.027707099e-15
-1.031283001e-15
-1.033425772e-15
-5.170683164e-16
-7.875696903e-08
7.948228436e-08
-7.468969898e-08
-1.628141495e-07
2.565834184e-07
9.775023186e-07
3.15625652e-07
-1.116075463e-06
3.814764372e-07
-3.723087352e-17
-7.911806903e-17
-1.214460677e-16
-1.620652627e-16
-2.021260036e-16
-2.418036654e-16
-2.810627163e-16
-3.198495611e-16
-3.581016173e-16
-3.957551502e-16
-4.327505321e-16
-4.690314976e-16
-5.045435665e-16
-5.392334405e-16
-5.730494722e-16
-6.059423265e-16
-6.378652075e-16
-6.687741967e-16
-6.986279039e-16
-7.273877098e-16
-7.550174392e-16
-7.814834054e-16
-8.06754339e-16
-8.308012739e-16
-8.535975743e-16
-8.751188812e-16
-8.953429364e-16
-9.14249494e-16
-9.318203683e-16
-9.480391364e-16
-9.628912166e-16
-9.763637166e-16
-9.884452747e-16
-9.991260439e-16
-1.008397583e-15
-1.016252753e-15
-1.02268564e-15
-1.027691588e-15
-1.031266915e-15
-1.033409112e-15
-5.170497381e-16
-1.594778486e-07
6.15994509e-09
3.400506756e-08
-1.733838289e-07
-2.001954696e-07
6.134086735e-07
6.843465569e-07
-2.312024957e-08
5.926649381e-08
-3.723071348e-17
-7.912364123e-17
-1.214458715e-16
-1.620624932e-16
-2.021220566e-16
-2.418014547e-16
-2.810596959e-16
-3.198432543e-16
-3.580923539e-16
-3.957440736e-16
-4.327382349e-16
-4.690181006e-16
-5.045289529e-16
-5.392176076e-16
-5.730325053e-16
-6.059242949e-16
-6.378462268e-16
-6.687542528e-16
-6.986070243e-16
-7.273658858e-16
-7.549946842e-16
-7.81459656e-16
-8.067296123e-16
-8.307756093e-16
-8.535709833e-16
-8.750914208e-16
-8.953145709e-16
-9.142202954e-16
-9.317903289e-16
-9.480083083e-16
-9.628596228e-16
-9.763313572e-16
-9.884121736e-16
-9.990922208e-16
-1.008363065e-15
-1.016217561e-15
-1.022649775e-15
-1.027655106e-15
-1.031229842e-15
-1.033371474e-15
-5.170202139e-16
-1.368753222e-07
-1.280635912e-07
4.842074045e-09
-1.970781361e-08
-2.973157793e-07
-1.811008913e-08
1.877295591e-08
2.629800176e-07
2.359500506e-09
-3.723079716e-17
-7.912175125e-17
-1.21445337e-16
-1.620570879e-16
-2.021116945e-16
-2.417902537e-16
-2.810483141e-16
-3.19829029e-16
-3.580743498e-16
-3.957229165e-16
-4.327148072e-16
-4.689927266e-16
-5.045017128e-16
-5.391884199e-16
-5.73001393e-16
-6.058913587e-16
-6.378115355e-16
-6.687179337e-16
-6.98569152e-16
-7.273264737e-16
-7.549537873e-16
-7.814173489e-16
-8.066858925e-16
-8.307305231e-16
-8.53524624e-16
-8.750438092e-16
-8.952658286e-16
-9.141704571e-16
-9.317394201e-16
-9.479563861e-16
-9.628067354e-16
-9.762775725e-16
-9.883575037e-16
-9.99036726e-16
-1.008306764e-15
-1.016160546e-15
-1.022592111e-15
-1.027596748e-15
-1.031170933e-15
-1.033312019e-15
-5.169793385e-16
-3.476474678e-08
-1.791385467e-07
-2.171499379e-07
2.503576436e-08
-1.650430968e-08
-1.205854764e-07
-4.871253301e-07
4.633452201e-08
3.129399769e-08
-3.723135279e-17
-7.911342551e-17
-1.21440566e-16
-1.62048913e-16
-2.020973784e-16
-2.417702252e-16
-2.810266253e-16
-3.198052492e-16
-3.580469612e-16
-3.956917037e-16
-4.326802685e-16
-4.689553115e-16
-5.044615221e-16
-5.391454817e-16
-5.72955743e-16
-6.058430934e-16
-6.377607517e-16
-6.686647685e-16
-6.985137464e-16
-7.272689759e-16
-7.54894221e-16
-7.813558613e-16
-8.0662256e-16
-8.306654491e-16
-8.534579229e-16
-8.749755394e-16
-8.951960393e-16
-9.140992754e-16
-9.316669433e-16
-9.47882673e-16
-9.627318537e-16
-9.762016124e-16
-9.882805505e-16
-9.989587982e-16
-1.008228008e-15
-1.016080966e-15
-1.022511806e-15
-1.027515818e-15
-1.031089375e-15
-1.033229968e-15
-5.169267886e-16
4.672008009e-08
-4.388100638e-08
-3.922410502e-07
-2.044165495e-07
1.194744528e-07
4.48722587e-08
-5.132215161e-07
-2.681794978e-07
9.158342378e-10
-3.723185833e-17
-7.91033379e-17
-1.214301676e-16
-1.620354242e-16
-2.020804984e-16
-2.417436849e-16
-2.809947615e-16
-3.197706131e-16
-3.580090446e-16
-3.956498739e-16
-4.326344357e-16
-4.689056576e-16
-5.0440817e-16
-5.390885205e-16
-5.728951861e-16
-6.057790461e-16
-6.376934726e-16
-6.68594374e-16
-6.984404144e-16
-7.271928846e-16
-7.548155659e-16
-7.812747397e-16
-8.065391339e-16
-8.305798381e-16
-8.533702604e-16
-8.748859578e-16
-8.951046851e-16
-9.140061935e-16
-9.315723091e-16
-9.477865594e-16
-9.626343744e-16
-9.761028505e-16
-9.881806102e-16
-9.988578388e-16
-1.008126056e-15
-1.015978157e-15
-1.022408213e-15
-1.027411544e-15
-1.030984523e-15
-1.033124605e-15
-5.168622963e-16
7.857848183e-09
1.338979093e-07
-2.879353458e-07
-4.085737689e-07
-1.034273895e-08
7.666822022e-08
-2.652527423e-07
-3.280514672e-07
-4.232990345e-08
-3.723068987e-17
-7.909452051e-17
-1.214149849e-16
-1.620136856e-16
-2.020589244e-16
-2.417128113e-16
-2.809552118e-16
-3.197259004e-16
-3.579602042e-16
-3.955967773e-16
-4.325768588e-16
-4.688435194e-16
-5.043414362e-16
-5.390172403e-16
-5.728194492e-16
-6.056989866e-16
-6.37609328e-16
-6.685063322e-16
-6.983488173e-16
-7.270978832e-16
-7.547174002e-16
-7.811735888e-16
-8.064352e-16
-8.304732927e-16
-8.532612237e-16
-8.747746567e-16
-8.949912016e-16
-9.138907244e-16
-9.314549416e-16
-9.476674529e-16
-9.625137013e-16
-9.75980738e-16
-9.880571451e-16
-9.987332098e-16
-1.00800036e-15
-1.015851522e-15
-1.022280736e-15
-1.027283373e-15
-1.030855731e-15
-1.03299532e-15
-5.167855191e-16
-1.076547075e-07
1.460246507e-07
-6.20159708e-08
-3.772040327e-07
-1.574387795e-07
-8.164925846e-08
-5.00612464e-08
-1.495481888e-07
1.85414455e-08
-3.722671175e-17
-7.90860344e-17
-1.213959219e-16
-1.619830922e-16
-2.020272898e-16
-2.416756616e-16
-2.809094017e-16
-3.196726551e-16
-3.579011259e-16
-3.955324102e-16
-4.325072451e-16
-4.68768537e-16
-5.042610717e-16
-5.389314131e-16
-5.727282978e-16
-6.056026555e-16
-6.375080658e-16
-6.684004775e-16
-6.982385965e-16
-7.269836158e-16
-7.545993534e-16
-7.810520313e-16
-8.063103331e-16
-8.303453559e-16
-8.531304176e-16
-8.746411125e-16
-8.948551989e-16
-9.137523875e-16
-9.313144244e-16
-9.475249876e-16
-9.623693991e-16
-9.758347537e-16
-9.879097092e-16
-9.985844355e-16
-1.007850409e-15
-1.015700543e-15
-1.022128888e-15
-1.027130781e-15
-1.030702512e-15
-1.032841638e-15
-5.1669631e-16
-1.63888008e-07
2.017374463e-08
4.336098578e-08
-2.150253073e-07
-1.59014168e-07
-2.111384143e-07
-6.998683254e-09
2.910352267e-08
2.108237195e-07
-3.72186898e-17
-7.90761992e-17
-1.213731365e-16
-1.619477333e-16
-2.019834582e-16
-2.416281093e-16
-2.808556451e-16
-3.196112445e-16
-3.578323546e-16
-3.954570768e-16
-4.324255693e-16
-4.686806128e-16
-5.041668245e-16
-5.388308107e-16
-5.726214658e-16
-6.054898175e-16
-6.373894793e-16
-6.682764907e-16
-6.981095585e-16
-7.268498859e-16
-7.544612302e-16
-7.809097933e-16
-8.061643064e-16
-8.301957423e-16
-8.529774894e-16
-8.744851172e-16
-8.946962914e-16
-9.135908077e-16
-9.311503961e-16
-9.473586982e-16
-9.622010621e-16
-9.756645733e-16
-9.877378566e-16
-9.984110957e-16
-1.007675804e-15
-1.015524808e-15
-1.02195224e-15
-1.02695333e-15
-1.030524471e-15
-1.032663107e-15
-5.165945114e-16
-1.12459524e-07
-9.112653744e-08
1.192805932e-10
-8.757648935e-08
-4.826338083e-08
-8.804508142e-08
-7.22839131e-08
1.651901741e-07
5.3115796e-07
-3.720470319e-17
-7.906067461e-17
-1.213445445e-16
-1.619123006e-16
-2.019321625e-16
-2.415699312e-16
-2.807920794e-16
-3.195405678e-16
-3.577538656e-16
-3.953708336e-16
-4.323319121e-16
-4.685796572e-16
-5.040585775e-16
-5.387153635e-16
-5.724988806e-16
-6.053603504e-16
-6.372534459e-16
-6.68134256e-16
-6.979615566e-16
-7.266964817e-16
-7.543028017e-16
-7.807466952e-16
-8.059968376e-16
-8.300242536e-16
-8.528022099e-16
-8.743063235e-16
-8.945142341e-16
-9.134057571e-16
-9.309625893e-16
-9.471683403e-16
-9.62008418e-16
-9.754698613e-16
-9.875413377e-16
-9.982129341e-16
-1.007476254e-15
-1.015324071e-15
-1.021750482e-15
-1.026750751e-15
-1.030321241e-15
-1.032459434e-15
-5.164799551e-16
-1.391281027e-08
-1.286671401e-07
-8.889924306e-08
-7.818793195e-08
4.330790262e-08
2.641850589e-07
-3.243953749e-07
-2.560741624e-07
7.065488609e-07
-3.718854682e-17
-7.90385848e-17
-1.213078501e-16
-1.618743753e-16
-2.018783534e-16
-2.415047983e-16
-2.807192787e-16
-3.194600538e-16
-3.576650875e-16
-3.952735877e-16
-4.322262887e-16
-4.684656853e-16
-5.039363069e-16
-5.385848735e-16
-5.723603597e-16
-6.052140813e-16
-6.370998192e-16
-6.679736788e-16
-6.977944694e-16
-7.265233152e-16
-7.541239531e-16
-7.805626e-16
-8.058078348e-16
-8.298306624e-16
-8.526044038e-16
-8.741045802e-16
-8.943088567e-16
-9.131970136e-16
-9.307507575e-16
-9.469537134e-16
-9.617912646e-16
-9.752504197e-16
-9.873199024e-16
-9.979897396e-16
-1.007251506e-15
-1.015098054e-15
-1.021523403e-15
-1.026522815e-15
-1.030092682e-15
-1.032230394e-15
-5.163526704e-16
6.871325012e-08
-1.366009884e-07
-1.385686773e-07
-1.671826194e-07
3.32952116e-08
6.405881855e-07
-4.604083613e-07
-8.529886477e-07
5.267715255e-07
-3.717771938e-17
-7.901142865e-17
-1.212643279e-16
-1.618272183e-16
-2.018206478e-16
-2.414348445e-16
-2.806387531e-16
-3.193700128e-16
-3.575658076e-16
-3.951650594e-16
-4.321084946e-16
-4.683385913e-16
-5.037999894e-16
-5.384393899e-16
-5.722059355e-16
-6.05051066e-16
-6.369285809e-16
-6.677947268e-16
-6.9760824e-16
-7.26330309e-16
-7.539246609e-16
-7.803574182e-16
-8.055972187e-16
-8.296149548e-16
-8.523839896e-16
-8.738797587e-16
-8.940800254e-16
-9.129644501e-16
-9.305148139e-16
-9.467146829e-16
-9.615494236e-16
-9.750061314e-16
-9.870734164e-16
-9.977413746e-16
-1.007001516e-15
-1.01484665e-15
-1.021270866e-15
-1.026269377e-15
-1.02983856e-15
-1.031975841e-15
-5.162125521e-16
1.269170787e-07
-1.744976563e-07
-1.476325821e-07
-2.787746408e-07
-1.370607715e-07
7.762911286e-07
-2.64697796e-11
-7.18565916e-07
6.264898428e-08
-3.717423664e-17
-7.898288687e-17
-1.212201433e-16
-1.617703038e-16
-2.017556869e-16
-2.41359039e-16
-2.805510684e-16
-3.192710695e-16
-3.574562778e-16
-3.950452842e-16
-4.319784733e-16
-4.68198362e-16
-5.036495074e-16
-5.382788458e-16
-5.720355549e-16
-6.04871216e-16
-6.367397174e-16
-6.675973755e-16
-6.974029061e-16
-7.261175321e-16
-7.537049222e-16
-7.801311946e-16
-8.053649459e-16
-8.293771195e-16
-8.521409349e-16
-8.736319112e-16
-8.938277164e-16
-9.127080872e-16
-9.302547134e-16
-9.464512216e-16
-9.612829543e-16
-9.747369743e-16
-9.868018905e-16
-9.974677785e-16
-1.00672615e-15
-1.014569831e-15
-1.020992822e-15
-1.025990406e-15
-1.029558908e-15
-1.031695733e-15
-5.160596488e-16
1.83037423e-07
-2.577334436e-07
-2.143667853e-07
-3.948123643e-07
-4.150981646e-07
2.700069169e-07
1.153078745e-07
1.713850217e-07
-3.220569516e-07
-3.716839413e-17
-7.895416106e-17
-1.211792673e-16
-1.617099998e-16
-2.016840782e-16
-2.412761658e-16
-2.804558028e-16
-3.191634694e-16
-3.573368997e-16
-3.949144772e-16
-4.318364197e-16
-4.680450111e-16
-5.034849363e-16
-5.381032785e-16
-5.718492641e-16
-6.046746255e-16
-6.365333571e-16
-6.673817134e-16
-6.971785677e-16
-7.258850392e-16
-7.534648278e-16
-7.79884015e-16
-8.051111544e-16
-8.291171618e-16
-8.518752968e-16
-8.733610029e-16
-8.935519686e-16
-9.12427899e-16
-9.299705086e-16
-9.461633822e-16
-9.609918441e-16
-9.744429545e-16
-9.865053289e-16
-9.971690124e-16
-1.006425516e-15
-1.014267589e-15
-1.020689319e-15
-1.025685898e-15
-1.029253681e-15
-1.031390119e-15
-5.158940001e-16
2.410039426e-07
-3.054907709e-07
-4.244929144e-07
-6.50748916e-07
-6.493437659e-07
-6.768136988e-07
-6.850656526e-07
6.349968697e-07
-2.886530585e-07
-3.715538276e-17
-7.892010961e-17
-1.211354739e-16
-1.616478751e-16
-2.016072311e-16
-2.411859296e-16
-2.803523238e-16
-3.190470007e-16
-3.57207724e-16
-3.9477283e-16
-4.316823372e-16
-4.678786258e-16
-5.033063596e-16
-5.379126731e-16
-5.716471471e-16
-6.044613865e-16
-6.363095107e-16
-6.671478935e-16
-6.969353231e-16
-7.256329801e-16
-7.532044879e-16
-7.796159677e-16
-8.048359359e-16
-8.288352803e-16
-8.515871973e-16
-8.730672167e-16
-8.932529311e-16
-9.12124033e-16
-9.296622992e-16
-9.458512291e-16
-9.606762101e-16
-9.741242108e-16
-9.861838471e-16
-9.968451756e-16
-1.006099657e-15
-1.013940084e-15
-1.020360457e-15
-1.025356008e-15
-1.028923066e-15
-1.031059026e-15
-5.157156968e-16
2.132005641e-07
-1.434268684e-07
-6.401105462e-07
-8.298544279e-07
-4.399724047e-07
-9.735708096e-07
-1.444250732e-06
1.656060162e-07
-1.002131041e-07
-3.713858006e-17
-7.888476345e-17
-1.21087028e-16
-1.615831255e-16
-2.015258309e-16
-2.410889977e-16
-2.802408728e-16
-3.189217114e-16
-3.570688394e-16
-3.946204215e-16
-4.315164598e-16
-4.676993037e-16
-5.031138475e-16
-5.377072962e-16
-5.714292642e-16
-6.042316156e-16
-6.360684105e-16
-6.668960405e-16
-6.966733395e-16
-7.253614768e-16
-7.529240887e-16
-7.793272445e-16
-8.045394418e-16
-8.285315676e-16
-8.51276837e-16
-8.727506631e-16
-8.929307432e-16
-9.117966936e-16
-9.29330279e-16
-9.455149891e-16
-9.603362158e-16
-9.73780919e-16