/*--------------------------------*- C++ -*----------------------------------*\
  =========                 |
  \\      /  F ield         | OpenFOAM: The Open Source CFD Toolbox
   \\    /   O peration     | Website:  https://openfoam.org
    \\  /    A nd           | Version:  6
     \\/     M anipulation  |
\*---------------------------------------------------------------------------*/
FoamFile
{
    version     2.0;
    format      ascii;
    class       volScalarField;
    location    "0.04";
    object      p_rgh;
}
// * * * * * * * * * * * * * * * * * * * * * * * * * * * * * * * * * * * * * //

dimensions      [1 -1 -2 0 0 0 0];

internalField   nonuniform List<scalar> 
2500
(
0.009474171554
0.02622249443
0.04149762219
0.05397995476
0.06327898812
0.06918777894
0.07275556759
0.07001066554
27276.17357
27304.94634
27333.40149
27361.37993
27388.66525
27415.06388
27440.4099
27464.56818
27487.43561
27508.94079
27529.04225
27547.72573
27565.00071
27580.89665
27595.45913
27608.74611
27620.82453
27631.76726
27641.65046
27650.55144
27658.54691
27665.7116
27672.11722
27677.8318
27682.91914
27687.43857
27691.44482
27694.988
27698.11372
27700.8632
27703.27348
27705.37766
27707.20508
27708.78159
27710.12977
27711.26911
27712.21623
27712.98505
27713.58692
27714.03077
27714.32319
27714.46844
0.01016652613
0.02769636473
0.04349922844
0.05621430367
0.06555736867
0.07140218053
0.07493247147
0.0722529373
27276.17736
27305.19096
27333.87831
27362.073
27389.55191
27416.11648
27441.59768
27465.85909
27488.79798
27510.34467
27530.46045
27549.1345
27566.38007
27582.2305
27596.73505
27609.95515
27621.96075
27632.82734
27642.63327
27651.45759
27659.37837
27666.47135
27672.80899
27678.45979
27683.48782
27687.95255
27691.9087
27695.40631
27698.49082
27701.20327
27703.58048
27705.65532
27707.4569
27709.01086
27710.33955
27711.46227
27712.39549
27713.15295
27713.74591
27714.18318
27714.47132
27714.61468
0.01165840448
0.03077294785
0.04763082634
0.0607543196
0.07013414921
0.07581486505
0.07922731544
0.07658512548
27276.18215
27305.68767
27334.84798
27363.48197
27391.35304
27418.25262
27444.0055
27468.47285
27491.55294
27513.17991
27533.32094
27551.97237
27569.1553
27584.91099
27599.29631
27612.37961
27624.23699
27634.94917
27644.59882
27653.26847
27661.03887
27667.98774
27674.18896
27679.71192
27684.62123
27688.97657
27692.83263
27696.23925
27699.24154
27701.88016
27704.19147
27706.20787
27707.95801
27709.46707
27710.75698
27711.84666
27712.75222
27713.4871
27714.06231
27714.48647
27714.76598
27714.90506
0.01418941832
0.03572955721
0.05414149988
0.06772882537
0.07701171542
0.08235136887
0.08550590741
0.08297083474
27276.18843
27306.45419
27336.34413
27365.65389
27394.12573
27421.53559
27447.69903
27472.47408
27495.76132
27517.50149
27537.67148
27556.27926
27573.35839
27588.96254
27603.16034
27616.03079
27627.6593
27638.13445
27647.54535
27655.97964
27663.52197
27670.25292
27676.24834
27681.57889
27686.30986
27690.50113
27694.2073
27697.47783
27700.35731
27702.88573
27705.09877
27707.0281
27708.70164
27710.14388
27711.37612
27712.41666
27713.2811
27713.98244
27714.53128
27714.93594
27715.20258
27715.33527
0.01817395389
0.04300240397
0.0634056094
0.07729328709
0.0861417665
0.09085690617
0.0935395077
0.09127216097
27276.19824
27307.51922
27338.42063
27368.66372
27397.96042
27426.06507
27452.78106
27477.96333
27501.51705
27523.39361
27543.58467
27562.11531
27579.03705
27594.42112
27608.35248
27620.92472
27632.23585
27642.38491
27651.46948
27659.58381
27666.81751
27673.25474
27678.97375
27684.04664
27688.5394
27692.51205
27696.01889
27699.10877
27701.82547
27704.20805
27706.29118
27708.10552
27709.67799
27711.03215
27712.18839
27713.16424
27713.97457
27714.63176
27715.14591
27715.52492
27715.77464
27715.89891
0.02424035494
0.05320122549
0.07587323023
0.08954071066
0.09729772167
0.10100913
0.102965845
0.1012318731
27276.21288
27308.92388
27341.15558
27372.61992
27402.98716
27431.98323
27459.39693
27485.08129
27508.9502
27530.97158
27551.1587
27569.5608
27586.254
27601.33307
27614.90447
27627.08059
27637.97534
27647.70078
27656.36483
27664.06963
27670.91059
27676.97591
27682.34642
27687.0957
27691.29027
27694.99005
27698.24872
27701.11419
27703.62909
27705.83117
27707.75377
27709.42619
27710.87409
27712.11976
27713.1825
27714.0788
27714.82263
27715.42561
27715.89716
27716.24469
27716.47363
27716.58759
0.03330730286
0.06703354395
0.09231427653
0.1049005121
0.1104165976
0.1124796151
0.1132932115
0.1124429398
27276.22755
27310.72447
27344.65798
27377.67312
27409.38497
27439.48374
27467.74218
27494.01485
27518.23111
27540.38414
27560.51819
27578.71573
27595.08568
27609.7534
27622.85252
27634.51867
27644.88501
27654.079
27662.22044
27669.42033
27675.78038
27681.393
27686.3415
27690.70065
27694.53717
27697.91042
27700.87303
27703.47151
27705.74686
27707.73513
27709.46791
27710.9728
27712.27382
27713.39175
27714.34449
27715.1473
27715.81303
27716.35236
27716.77394
27717.08453
27717.28911
27717.39096
0.04617942436
0.08430808918
0.1121836103
0.1225614504
0.1246059467
0.1244564582
0.1237381897
0.1240858219
27276.24138
27313.00081
27349.07879
27384.0294
27417.39568
27448.82447
27478.07318
27505.00489
27529.57544
27551.81601
27571.81464
27589.69877
27605.62023
27619.74306
27632.2343
27643.25743
27652.96795
27661.51073
27669.01859
27675.61191
27681.39872
27686.47533
27690.92711
27694.82942
27698.24856
27701.24269
27703.86275
27706.15326
27708.15305
27709.89593
27711.41132
27712.72468
27713.85805
27714.83037
27715.65787
27716.35433
27716.93129
27717.39834
27717.76319
27718.03187
27718.20882
27718.29695
0.06104718713
0.1051515858
0.1331222254
0.1390522082
0.1360647615
0.134116396
0.1328937971
0.1344777808
27276.2537
27315.86526
27354.62691
27391.96968
27427.34355
27460.34505
27490.72105
27518.35614
27543.24993
27565.49014
27585.22602
27602.64505
27617.95408
27631.36504
27643.08501
27653.30967
27662.21957
27669.97834
27676.73233
27682.61106
27687.72835
27692.18362
27696.06335
27699.44257
27702.38618
27704.95029
27707.18332
27709.12705
27710.81747
27712.28561
27713.55813
27714.65796
27715.60473
27716.41525
27717.10375
27717.6823
27718.16095
27718.54799
27718.85009
27719.07244
27719.21885
27719.2918
0.06639243028
0.1251895221
0.1554222751
0.15815431
0.1478717708
0.1423047717
0.1392104797
0.1433747445
27276.26379
27319.47736
27361.59369
27401.87832
27439.66325
27474.49075
27506.1096
27534.44864
27559.57817
27581.66892
27600.95471
27617.70194
27632.18669
27644.67881
27655.43188
27664.67757
27672.62326
27679.45175
27685.32235
27690.37273
27694.72112
27698.46859
27701.70129
27704.49252
27706.90454
27708.99022
27710.79448
27712.35545
27713.70553
27714.87225
27715.87901
27716.74568
27717.48911
27718.12356
27718.66104
27719.11163
27719.48369
27719.78407
27720.01823
27720.19045
27720.30381
27720.36037
0.03414645518
0.1000365169
0.1453732525
0.1700184297
0.1671099456
0.1573271088
0.1455472325
0.1555361705
27276.28295
27324.07118
27370.39173
27414.28578
27454.93961
27491.84448
27524.7776
27553.75055
27578.94533
27600.65302
27619.22248
27635.02197
27648.41268
27659.73246
27669.28701
27677.34642
27684.14515
27689.88408
27694.73366
27698.83749
27702.31592
27705.26947
27707.78189
27709.92289
27711.75046
27713.31285
27714.65022
27715.79605
27716.77827
27717.62021
27718.34137
27718.95805
27719.48388
27719.93026
27720.30667
27720.62096
27720.87959
27721.08782
27721.24982
27721.36879
27721.44708
27721.48623
-0.06067905149
-0.04915975562
0.007347924263
0.09837840251
0.158857665
0.1704242709
0.1640529023
0.1644294623
27276.33442
27330.00435
27381.61545
27429.93212
27473.96372
27513.16907
27547.40528
27576.83047
27601.79977
27622.77575
27640.26084
27654.7515
27666.71043
27676.55225
27684.63825
27691.27695
27696.72786
27701.2068
27704.89179
27707.92875
27710.43674
27712.51263
27714.23509
27715.66791
27716.86281
27717.86175
27718.69878
27719.40157
27719.99264
27720.49032
27720.90958
27721.26265
27721.55953
27721.80837
27722.01585
27722.18739
27722.32737
27722.43929
27722.5259
27722.5893
27722.631
27722.65198
-0.1760912483
-0.2811649485
-0.2535430383
-0.1083049706
0.05661261346
0.1545158796
0.1788908646
0.1142277241
27276.68422
27337.84681
27396.13215
27449.86147
27497.81233
27539.46159
27574.84336
27604.36616
27628.64777
27648.38991
27664.29438
27677.01363
27687.12625
27695.12884
27701.4378
27706.39632
27710.28359
27713.32456
27715.69906
27717.55009
27718.99078
27720.1104
27720.97912
27721.65205
27722.17235
27722.57382
27722.88287
27723.12014
27723.30172
27723.44019
27723.54536
27723.62485
27723.68461
27723.72927
27723.76242
27723.78684
27723.80467
27723.81753
27723.82668
27723.833
27723.83712
27723.83947
-0.218708411
-0.396241525
-0.4080400129
-0.2755632594
-0.0720547196
0.1015428147
0.1369795344
0.01763203891
27277.45266
27348.33945
27415.20136
27475.56597
27527.96
27572.02
27608.13971
27637.14302
27660.03571
27677.84249
27691.51407
27701.88344
27709.65317
27715.40014
27719.58889
27722.58802
27724.68674
27726.10988
27727.03093
27727.58288
27727.86706
27727.96021
27727.92013
27727.79002
27727.60196
27727.37957
27727.14003
27726.89568
27726.65524
27726.42473
27726.20818
27726.00816
27725.82621
27725.66311
27725.51917
27725.39434
27725.28839
27725.20098
27725.13176
27725.08037
27725.04653
27725.03003
-0.205951591
-0.3342218567
-0.3428267699
-0.2347613585
-0.07094157534
0.06346563501
0.05309425738
0.03341526245
27277.20492
27362.45353
27440.76039
27509.23569
27566.43816
27612.51686
27648.55188
27676.03082
27696.5104
27711.43138
27722.03718
27729.35414
27734.20408
27737.23087
27738.93076
27739.68128
27739.76659
27739.3984
27738.73301
27737.88457
27736.93549
27735.94442
27734.95234
27733.98713
27733.06714
27732.20373
27731.40327
27730.66862
27730.00016
27729.39666
27728.85584
27728.3748
27727.95036
27727.57923
27727.25824
27726.98441
27726.75503
27726.56772
27726.42048
27726.31167
27726.24007
27726.20485
-0.1815560749
-0.2231565716
-0.197515439
-0.09365164296
0.04538690496
0.09473975857
0.03447836292
0.3266999402
27277.90264
27382.84222
27476.14161
27554.17049
27616.03566
27663.05563
27697.52015
27721.91894
27738.54512
27749.33705
27755.85071
27759.29336
27760.57956
27760.38983
27759.22323
27757.44096
27755.30107
27752.98527
27750.61927
27748.28803
27746.04705
27743.93081
27741.95884
27740.14023
27738.47696
27736.96618
27735.60199
27734.37665
27733.28144
27732.30726
27731.44509
27730.68625
27730.02259
27729.44662
27728.95159
27728.53147
27728.18105
27727.89587
27727.67225
27727.50726
27727.39872
27727.34519
-0.1617596113
-0.1463034054
-0.09638163028
-0.001438585233
0.1349945992
0.1361861704
0.1073946167
0.85902864
27280.24255
27413.88955
27526.7801
27615.25813
27680.47374
27726.14913
27756.55548
27775.58186
27786.41645
27791.52326
27792.7373
27791.39082
27788.43253
27784.52709
27780.13267
27775.55946
27771.01261
27766.62345
27762.47189
27758.60232
27755.035
27751.77407
27748.81312
27746.13919
27743.73549
27741.58327
27739.66313
27737.95585
27736.44299
27735.10718
27733.93236
27732.90388
27732.00853
27731.23451
27730.57145
27730.01029
27729.54329
27729.16393
27728.86686
27728.64788
27728.50385
27728.43273
-0.145122541
-0.1136230463
-0.06219209333
0.01482492221
0.1247374178
0.1259540621
0.1829581796
1.347852083
27286.74019
27464.39885
27601.8117
27699.5955
27764.4495
27804.51387
27826.9746
27837.44058
27840.01917
27837.60524
27832.18691
27825.10211
27817.23437
27809.15479
27801.22222
27793.65279
27786.56758
27780.02515
27774.04359
27768.61544
27763.71768
27759.31846
27755.38153
27751.8691
27748.74374
27745.96951
27743.51265
27741.34193
27739.42881
27737.74745
27736.27466
27734.98978
27733.87453
27732.91287
27732.09084
27731.3964
27730.81935
27730.35116
27729.98486
27729.71501
27729.53757
27729.44989
-0.1364794586
-0.1049749787
-0.06341923968
-0.009623027821
0.05312361983
0.0870616481
0.1514652402
1.435033473
27310.70159
27553.5981
27716.45022
27816.85557
27873.21986
27900.49037
27909.39631
27907.19315
27898.61939
27886.69541
27873.30581
27859.59854
27846.2498
27833.63691
27821.94987
27811.26303
27801.58085
27792.86702
27785.06293
27778.09921
27771.90288
27766.40167
27761.52656
27757.21309
27753.40204
27750.0396
27747.07728
27744.47168
27742.18416
27740.18047
27738.4304
27736.90742
27735.58834
27734.45301
27733.48405
27732.66657
27731.98802
27731.43795
27731.00789
27730.69121
27730.48302
27730.38009
-0.1354484058
-0.1088236193
-0.07819131401
-0.04156126191
-0.01136195534
0.03324397779
-0.02094224986
0.9785192837
27405.33532
27721.11905
27893.54032
27978.17402
28011.10525
28014.84907
28002.94005
27983.32531
27960.57595
27937.25538
27914.74533
27893.73855
27874.53099
27857.19447
27841.67845
27827.86965
27815.62674
27804.80012
27795.24288
27786.8166
27779.39398
27772.85986
27767.11104
27762.0558
27757.61291
27753.71078
27750.28643
27747.28463
27744.65698
27742.36119
27740.3604
27738.62253
27737.1198
27735.82821
27734.7272
27733.79926
27733.02966
27732.4062
27731.91902
27731.5604
27731.32467
27731.20811
-0.1389895485
-0.1179522391
-0.09658458094
-0.0730547543
-0.06261517614
-0.02837661746
-0.1269110561
0.2234012183
27708.4579
28030.32318
28158.52078
28191.26287
28178.22315
28144.88881
28104.20673
28062.60254
28023.1101
27987.0088
27954.68413
27926.08109
27900.94243
27878.93258
27859.70072
27842.91125
27828.25722
27815.46472
27804.2928
27794.53125
27785.99759
27778.53375
27772.00304
27766.28725
27761.28417
27756.90535
27753.07427
27749.72468
27746.79922
27744.24824
27742.02882
27740.10388
27738.44149
27737.01423
27735.7987
27734.77504
27733.9266
27733.23964
27732.70305
27732.30817
27732.04865
27731.9203
-0.1445373962
-0.1285505235
-0.1139809967
-0.1008026985
-0.09673590519
-0.08985579296
-0.1573459309
-0.3696391428
28393.30997
28532.02
28519.19836
28450.2548
28365.69866
28282.30922
28206.41286
28139.77719
28082.25805
28032.9883
27990.90287
27954.96026
27924.2258
27897.89337
27875.28123
27855.81806
27839.02686
27824.5095
27811.93315
27801.01892
27791.5323
27783.27551
27776.08116
27769.8071
27764.33229
27759.55336
27755.38184
27751.74185
27748.56825
27745.80504
27743.40409
27741.32404
27739.52944
27737.98994
27736.67975
27735.57703
27734.66352
27733.92417
27733.34684
27732.92207
27732.64293
27732.50486
-0.1503205694
-0.1383991833
-0.128651462
-0.1243367183
-0.1225474521
-0.1526206563
-0.1585323871
-0.7051706877
29453.23656
29185.22754
28936.26632
28724.97844
28552.06012
28412.2597
28299.36824
28207.83933
28133.15808
28071.78389
28020.97884
27978.63127
27943.10717
27913.13406
27887.71307
27866.05334
27847.52322
27831.6139
27817.91215
27806.07978
27795.83808
27786.95581
27779.24001
27772.52878
27766.68566
27761.59513
27757.15907
27753.29388
27749.92818
27747.0009
27744.4598
27742.26013
27740.36365
27738.73776
27737.35475
27736.19125
27735.22774
27734.44814
27733.83953
27733.39181
27733.09762
27732.9521
-0.1549489514
-0.1458634824
-0.1390206569
-0.1410389326
-0.1369417655
-0.1935910888
-0.1042618928
-0.8546754289
30571.27479
29821.18822
29315.74261
28961.36263
28705.30881
28515.29825
28370.95629
28259.04937
28170.74748
28100.00772
28042.59552
27995.47763
27956.43688
27923.82231
27896.38362
27873.15921
27853.39919
27836.51129
27822.02242
27809.55075
27798.78528
27789.47057
27781.39527
27774.38341
27768.28755
27762.9836
27758.36664
27754.34767
27750.85094
27747.81189
27745.17539
27742.89437
27740.92867
27739.24409
27737.81165
27736.60691
27735.60948
27734.8026
27734.17277
27733.70951
27733.40511
27733.25453
-0.1574824261
-0.1498281466
-0.1441876331
-0.1491015637
-0.1409136282
-0.2067261684
-0.02988800863
-0.8501655519
31289.06282
30216.34197
29543.94109
29099.31844
28792.45489
28572.6328
28410.08761
28286.64084
28190.76619
28114.89851
28053.91439
28004.24463
27963.33907
27929.33398
27900.8396
27876.80074
27856.4033
27839.01011
27824.1161
27811.31626
27800.28255
27790.74681
27782.4881
27775.32307
27769.09862
27763.68621
27758.97742
27754.88044
27751.3173
27748.22164
27745.53685
27743.21466
27741.21394
27739.4997
27738.04227
27736.81669
27735.80213
27734.98146
27734.34092
27733.8698
27733.56026
27733.40713
-0.1574824241
-0.1498281436
-0.1441876278
-0.1491015526
-0.1409136151
-0.2067261429
-0.02988806442
-0.8501656311
31289.06268
30216.34192
29543.94107
29099.31842
28792.45486
28572.63277
28410.08757
28286.64081
28190.76616
28114.89849
28053.91438
28004.24463
27963.33908
27929.33401
27900.83964
27876.80079
27856.40336
27839.01019
27824.11618
27811.31636
27800.28265
27790.74692
27782.48822
27775.3232
27769.09876
27763.68635
27758.97757
27754.88059
27751.31747
27748.2218
27745.53702
27743.21484
27741.21412
27739.49988
27738.04246
27736.81688
27735.80232
27734.98166
27734.34112
27733.87
27733.56045
27733.40733
-0.154948947
-0.1458634756
-0.1390206429
-0.1410388996
-0.1369417183
-0.1935909717
-0.10426195
-0.8546756692
30571.27427
29821.18811
29315.74258
28961.36259
28705.30873
28515.29815
28370.95617
28259.04926
28170.74739
28100.00766
28042.59549
27995.47763
27956.43691
27923.82239
27896.38373
27873.15936
27853.39937
27836.51151
27822.02267
27809.55103
27798.78559
27789.4709
27781.39563
27774.38379
27768.28795
27762.98402
27758.36709
27754.34814
27750.85143
27747.8124
27745.17591
27742.8949
27740.92921
27739.24465
27737.81221
27736.60748
27735.61006
27734.80319
27734.17336
27733.7101
27733.40571
27733.25513
-0.1503205669
-0.1383991793
-0.1286514464
-0.1243366748
-0.1225473662
-0.1526204484
-0.1585321679
-0.7051671869
29453.23624
29185.2276
28936.26637
28724.9784
28552.05999
28412.25952
28299.36804
28207.83913
28133.15791
28071.78377
28020.97878
27978.63127
27943.10723
27913.13418
27887.71325
27866.05358
27847.52353
27831.61427
27817.91256
27806.08025
27795.83859
27786.95637
27779.24061
27772.52942
27766.68634
27761.59585
27757.15982
27753.29466
27749.92899
27747.00174
27744.46066
27742.26101
27740.36456
27738.73868
27737.35569
27736.1922
27735.2287
27734.44912
27733.84051
27733.3928
27733.09861
27732.95309
-0.1445374022
-0.1285505327
-0.1139809944
-0.1008026695
-0.09673580179
-0.08985560851
-0.1573453747
-0.3696292336
28393.31075
28532.02055
28519.19858
28450.25475
28365.69845
28282.30892
28206.41253
28139.77688
28082.2578
28032.98812
27990.90277
27954.96025
27924.22588
27897.89355
27875.28149
27855.81841
27839.02729
27824.51001
27811.93374
27801.01957
27791.53302
27783.2763
27776.08201
27769.808
27764.33325
27759.55437
27755.38289
27751.74295
27748.56939
27745.80622
27743.4053
27741.32528
27739.53071
27737.99124
27736.68107
27735.57837
27734.66488
27733.92554
27733.34822
27732.92346
27732.64433
27732.50626
-0.1389895701
-0.1179522735
-0.09658461391
-0.07305477052
-0.06261511269
-0.02837650902
-0.1269104874
0.2234145239
27708.46032
28030.32428
28158.52109
28191.26274
28178.22277
28144.88832
28104.20623
28062.60208
28023.10973
27987.00854
27954.68399
27926.08107
27900.94253
27878.93281
27859.70106
27842.9117
27828.25777
27815.46538
27804.29355
27794.5321
27785.99852
27778.53476
27772.00413
27766.28841
27761.2854
27756.90664
27753.07562
27749.72609
27746.80068
27744.24975
27742.03037
27740.10548
27738.44312
27737.0159
27735.8004
27734.77676
27733.92835
27733.24141
27732.70483
27732.30997
27732.05045
27731.9221
-0.1354484479
-0.1088236898
-0.07819140609
-0.04156135678
-0.01136202612
0.03324399893
-0.02094209437
0.9785297663
27405.3385
27721.12015
27893.54042
27978.17358
28011.10456
28014.8483
28002.93931
27983.32468
27960.57545
27937.25503
27914.74514
27893.73852
27874.53112
27857.19475
27841.67887
27827.87021
27815.62744
27804.80094
27795.24382
27786.81764
27779.39513
27772.8611
27767.11238
27762.05722
27757.61441
27753.71236
27750.28809
27747.28636
27744.65877
27742.36304
27740.3623
27738.62449
27737.1218
27735.83025
27734.72928
27733.80137
27733.0318
27732.40837
27731.9212
27731.5626
27731.32688
27731.21032
-0.1364795205
-0.1049750926
-0.06341940753
-0.009623229749
0.05312339569
0.08706159828
0.1514652015
1.435034646
27310.70239
27553.59818
27716.44961
27816.85455
27873.21869
27900.48921
27909.39528
27907.19229
27898.61873
27886.69497
27873.30558
27859.59851
27846.24996
27833.63725
27821.95038
27811.26371
27801.58168
27792.86799
27785.06404
27778.10045
27771.90424
27766.40315
27761.52815
27757.21478
27753.40383
27750.04148
27747.07925
27744.47373
27742.18628
27740.18266
27738.43266
27736.90974
27735.59071
27734.45544
27733.48651
27732.66907
27731.99056
27731.44052
27731.01048
27730.69381
27730.48563
27730.38271
-0.1451226135
-0.1136232052
-0.06219234534
0.01482458929
0.1247370272
0.1259538479
0.1829585463
1.347853622
27286.74004
27464.3979
27601.81011
27699.59364
27764.44767
27804.51222
27826.97321
27837.43948
27840.01836
27837.60471
27832.18663
27825.10208
27817.23457
27809.1552
27801.22283
27793.65359
27786.56856
27780.02629
27774.04489
27768.61688
27763.71927
27759.32018
27755.38337
27751.87106
27748.74581
27745.97169
27743.51493
27741.3443
27739.43126
27737.74999
27736.27727
27734.99246
27733.87728
27732.91567
27732.09369
27731.3993
27730.82229
27730.35412
27729.98785
27729.71802
27729.54059
27729.45291
-0.1617596668
-0.1463035994
-0.09638195521
-0.001439016902
0.1349941125
0.1361856612
0.1073945721
0.8590299764
27280.24248
27413.88741
27526.77715
27615.25515
27680.47108
27726.14692
27756.55371
27775.58051
27786.41549
27791.52264
27792.737
27791.3908
27788.43278
27784.52758
27780.1334
27775.56039
27771.01374
27766.62477
27762.47338
27758.60397
27755.03682
27751.77603
27748.81523
27746.14143
27743.73785
27741.58575
27739.66572
27737.95855
27736.44579
27735.11007
27733.93534
27732.90694
27732.01165
27731.2377
27730.57469
27730.01359
27729.54663
27729.1673
27728.87026
27728.6513
27728.50729
27728.43617
-0.1815560791
-0.2231567891
-0.1975157831
-0.09365207397
0.04538642675
0.09473920161
0.03447793836
0.3266963078
27277.9021
27382.83762
27476.1365
27554.16603
27616.03207
27663.05283
27697.51803
27721.91739
27738.54404
27749.33639
27755.85041
27759.29338
27760.57988
27760.39043
27759.22408
27757.44203
27755.30236
27752.98677
27750.62096
27748.2899
27746.0491
27743.93303
27741.96121
27740.14275
27738.47961
27736.96897
27735.6049
27734.37968
27733.28457
27732.3105
27731.44842
27730.68967
27730.02609
27729.4502
27728.95522
27728.53517
27728.18479
27727.89965
27727.67606
27727.5111
27727.40258
27727.34905
-0.2059515326
-0.3342219935
-0.342826993
-0.234761627
-0.07094187364
0.06346531787
0.05309396706
0.03336971369
27277.19866
27362.443
27440.75196
27509.22954
27566.4337
27612.5136
27648.54952
27676.02914
27696.50927
27711.43072
27722.03691
27729.35423
27734.20449
27737.23158
27738.93174
27739.68251
27739.76805
27739.40009
27738.73492
27737.88667
27736.93778
27735.94689
27734.95498
27733.98994
27733.0701
27732.20683
27731.40651
27730.67198
27730.00364
27729.40026
27728.85954
27728.3786
27727.95424
27727.58319
27727.26227
27726.9885
27726.75918
27726.57192
27726.42471
27726.31593
27726.24435
27726.20914
-0.2187083772
-0.3962414358
-0.4080398897
-0.2755631793
-0.07205473256
0.1015426798
0.1369794932
0.01723375203
27277.39812
27348.31654
27415.18941
27475.55871
27527.95516
27572.01661
27608.1373
27637.14135
27660.03462
27677.84189
27691.51389
27701.88363
27709.6537
27715.40098
27719.59002
27722.58942
27724.68839
27726.11177
27727.03305
27727.58521
27727.86959
27727.96294
27727.92304
27727.79311
27727.60522
27727.38299
27727.1436
27726.89938
27726.65908
27726.42869
27726.21225
27726.01234
27725.83048
27725.66747
27725.52361
27725.39885
27725.29295
27725.2056
27725.13641
27725.08505
27725.05123
27725.03475
-0.1760910392
-0.2811645408
-0.2535425643
-0.1083046145
0.0566127221
0.154515748
0.1788907022
0.1140444089
27276.6592
27337.83213
27396.12302
27449.85539
27497.80806
27539.45852
27574.84116
27604.36464
27628.64682
27648.38943
27664.29432
27677.01396
27687.12692
27695.12983
27701.4391
27706.3979
27710.28544
27713.32666
27715.70141
27717.55266
27718.99358
27720.1134
27720.98232
27721.65544
27722.17592
27722.57756
27722.88677
27723.12418
27723.30591
27723.44452
27723.5498
27723.62941
27723.68928
27723.73404
27723.76727
27723.79176
27723.80965
27723.82258
27723.83176
27723.83811
27723.84226
27723.84461
-0.06067877332
-0.049159315
0.007348355834
0.09837866585
0.1588577389
0.1704242422
0.1640528569
0.164493437
27276.3432
27330.00264
27381.61166
27429.92844
27473.96064
27513.16666
27547.40349
27576.82923
27601.79902
27622.77545
27640.26096
27654.752
27666.71128
27676.55342
27684.63973
27691.27873
27696.72992
27701.20913
27704.89437
27707.93157
27710.43979
27712.51591
27714.23858
27715.6716
27716.86669
27717.86581
27718.70302
27719.40597
27719.99719
27720.49501
27720.91441
27721.2676
27721.56459
27721.81354
27722.02111
27722.19273
27722.33278
27722.44476
27722.53142
27722.59486
27722.63658
27722.65757
0.03414658869
0.1000366913
0.1453733769
0.1700184656
0.167109933
0.1573270897
0.1455471859
0.1556186982
27276.29434
27324.07403
27370.39108
27414.28398
27454.93766
27491.84276
27524.77627
27553.74964
27578.94485
27600.65294
27619.22279
27635.02265
27648.41371
27659.73382
27669.28869
27677.34841
27684.14743
27689.88663
27694.73648
27698.84057
27702.31924
27705.27302
27707.78567
27709.92689
27711.75466
27713.31724
27714.6548
27715.8008
27716.78319
27717.62528
27718.34658
27718.96339
27719.48935
27719.93584
27720.31235
27720.62673
27720.88544
27721.09373
27721.25578
27721.37479
27721.45311
27721.49227
0.06639241172
0.1251894851
0.1554222148
0.1581542465
0.1478717144
0.1423047127
0.1392104015
0.1434211138
27276.27019
27319.47977
27361.59383
27401.87742
27439.66203
27474.48959
27506.10869
27534.44806
27559.57795
27581.66908
27600.95523
27617.70282
27632.18792
27644.68037
27655.43377
27664.67977
27672.62576
27679.45454
27685.32542
27690.37607
27694.72471
27698.47243
27701.70537
27704.49683
27706.90906
27708.99495
27710.79941
27712.36056
27713.71081
27714.8777
27715.88461
27716.75143
27717.49499
27718.12955
27718.66715
27719.11783
27719.48998
27719.79042
27720.02465
27720.1969
27720.31029
27720.36686
0.06104710815
0.105151486
0.1331221193
0.1390521192
0.1360646847
0.134116314
0.132893713
0.1344808768
27276.25413
27315.86554
27354.62658
27391.96895
27427.34268
27460.34427
27490.72047
27518.35585
27543.24998
27565.49053
27585.22676
27602.64615
27617.95552
27631.36682
27643.08711
27653.31209
27662.2223
27669.98138
27676.73565
27682.61467
27687.73223
27692.18775
27696.06774
27699.44719
27702.39103
27704.95536
27707.1886
27709.13252
27710.82313
27712.29144
27713.56412
27714.6641
27715.61102
27716.42166
27717.11029
27717.68894
27718.16768
27718.5548
27718.85696
27719.07936
27719.22579
27719.29876
0.04617934808
0.08430799209
0.1121834987
0.1225613489
0.1246058574
0.1244563719
0.1237381083
0.1240678705
27276.23891
27312.99945
27349.07781
27384.02855
27417.39495
27448.82392
27478.07286
27505.00486
27529.57573
27551.81663
27571.8156
27589.70008
27605.62189
27619.74505
27632.23663
27643.26008
27652.97092
27661.51401
27669.02218
27675.61579
27681.40288
27686.47976
27690.9318
27694.83436
27698.25374
27701.2481
27703.86838
27706.1591
27708.15908
27709.90216
27711.41771
27712.73124
27713.86475
27714.83722
27715.66485
27716.36141
27716.93847
27717.4056
27717.77052
27718.03926
27718.21624
27718.30438
0.03330724609
0.06703346077
0.09231417448
0.1049004131
0.1104165078
0.1124795304
0.113293128
0.1124127895
27276.22343
27310.72218
27344.65657
27377.67217
27409.38432
27439.48336
27467.74208
27494.01504
27518.23161
27540.38498
27560.51937
27578.71725
27595.08755
27609.75562
27622.85507
27634.52156
27644.88823
27654.08254
27662.22429
27669.42448
27675.78483
27681.39773
27686.34651
27690.70592
27694.54269
27697.91618
27700.87902
27703.47772
27705.75328
27707.74174
27709.47471
27710.97977
27712.28095
27713.39903
27714.35191
27715.15483
27715.82067
27716.36009
27716.78175
27717.09239
27717.29702
27717.39889
0.02424031504
0.05320115786
0.07587314372
0.08954062092
0.09729763447
0.1010090453
0.1029657673
0.1012027141
27276.20886
27308.9216
27341.15418
27372.61903
27402.98663
27431.98301
27459.39701
27485.08168
27508.95091
27530.97262
27551.16008
27569.56253
27586.25608
27601.33551
27614.90725
27627.08372
27637.9788
27647.70458
27656.36895
27664.07406
27670.91532
27676.98094
27682.35175
27687.10129
27691.29613
27694.99617
27698.25508
27701.12078
27703.63589
27705.83818
27707.76097
27709.43358
27710.88165
27712.12748
27713.19036
27714.08679
27714.83074
27715.43381
27715.90545
27716.25304
27716.48203
27716.59601
0.01817392549
0.04300234935
0.0634055356
0.07729320553
0.08614168335
0.09085682491
0.09353943585
0.09126049237
27276.19661
27307.51781
27338.4196
27368.66305
27397.96007
27426.06502
27452.78132
27477.9639
27501.51794
27523.39484
27543.58624
27562.11725
27579.03934
27594.42376
27608.35548
27620.92808
27632.23956
27642.38896
27651.47387
27659.58852
27666.82254
27673.26008
27678.97939
27684.05257
27688.54561
27692.51853
27696.02562
27699.11574
27701.83267
27704.21546
27706.2988
27708.11333
27709.68599
27711.04031
27712.1967
27713.17269
27713.98314
27714.64045
27715.15469
27715.53378
27715.78355
27715.90785
0.01418939743
0.03572951229
0.0541414361
0.06772875103
0.07701163642
0.08235128981
0.08550583103
0.08296870137
27276.18813
27306.45348
27336.34349
27365.65345
27394.12556
27421.53571
27447.69944
27472.47481
27495.76239
27517.5029
27537.67324
27556.28138
27573.36088
27588.9654
27603.16357
27616.03439
27627.66326
27638.13876
27647.55001
27655.98464
27663.5273
27670.25858
27676.25431
27681.58516
27686.31641
27690.50797
27694.2144
27697.48518
27700.3649
27702.89356
27705.10681
27707.03634
27708.71007
27710.15249
27711.38488
27712.42558
27713.29016
27713.99162
27714.54056
27714.94531
27715.21202
27715.34473
0.01165838827
0.03077290959
0.04763076969
0.06075425064
0.07013407287
0.07581478516
0.07922723069
0.0765807547
27276.18157
27305.68716
27334.84757
27363.48173
27391.35304
27418.25289
27444.00607
27468.47373
27491.55416
27513.18149
27533.32288
27551.97468
27569.15799
27584.91406
27599.29976
27612.38343
27624.24119
27634.95374
27644.60375
27653.27376
27661.0445
27667.99371
27674.19525
27679.71852
27684.62814
27688.98377
27692.8401
27696.24699
27699.24954
27701.88839
27704.19993
27706.21654
27707.96688
27709.47612
27710.76621
27711.85605
27712.76175
27713.49677
27714.07211
27714.49637
27714.77596
27714.91508
0.01016651259
0.02769633058
0.04349917635
0.05621423846