/*--------------------------------*- C++ -*----------------------------------*\
  =========                 |
  \\      /  F ield         | OpenFOAM: The Open Source CFD Toolbox
   \\    /   O peration     | Website:  https://openfoam.org
    \\  /    A nd           | Version:  6
     \\/     M anipulation  |
\*---------------------------------------------------------------------------*/
FoamFile
{
    version     2.0;
    format      ascii;
    class       surfaceScalarField;
    location    "0.04";
    object      phi;
}
// * * * * * * * * * * * * * * * * * * * * * * * * * * * * * * * * * * * * * //

dimensions      [0 3 -1 0 0 0 0];

internalField   nonuniform List<scalar> 
4900
(
-1.396499829e-08
-8.144122199e-10
-1.237325688e-08
-1.591741412e-09
-1.02670784e-08
-2.106178491e-09
-7.816959741e-09
-2.450118664e-09
-5.166601349e-09
-2.650358396e-09
-2.464353019e-09
-2.702248333e-09
-9.532539689e-11
-2.36902762e-09
4.784042086e-18
-9.532539728e-11
-2.869891407e-21
-6.4077344e-25
-2.84542847e-21
-2.446293699e-23
-2.797746988e-21
-4.768480549e-23
-2.728442034e-21
-6.931242893e-23
-2.639781533e-21
-8.867187596e-23
-2.534530523e-21
-1.052661825e-22
-2.415765287e-21
-1.187841619e-22
-2.286690614e-21
-1.290973168e-22
-2.150474645e-21
-1.362422912e-22
-2.010112134e-21
-1.40392468e-22
-1.868321875e-21
-1.418238006e-22
-1.727479301e-21
-1.408796446e-22
-1.589581573e-21
-1.379382649e-22
-1.456240147e-21
-1.33385363e-22
-1.328694685e-21
-1.275927276e-22
-1.207842073e-21
-1.209031295e-22
-1.094274846e-21
-1.136209138e-22
-9.883242522e-22
-1.060073641e-22
-8.90104241e-22
-9.827977444e-23
-7.995537158e-22
-9.061318666e-23
-7.164753052e-22
-8.314387164e-23
-6.405696626e-22
-7.597380097e-23
-5.714648806e-22
-6.917553188e-23
-5.087410204e-22
-6.27970926e-23
-4.519500288e-22
-5.686659476e-23
-4.006314779e-22
-5.139641016e-23
-3.543246438e-22
-4.638683243e-23
-3.125774587e-22
-4.182920302e-23
-2.74952855e-22
-3.770851975e-23
-2.410329762e-22
-3.40055698e-23
-2.104216754e-22
-3.069864155e-23
-1.827456659e-22
-2.776487369e-23
-1.576546253e-22
-2.518130015e-23
-1.348205065e-22
-2.292564488e-23
-1.139362526e-22
-2.097691628e-23
-9.471407473e-23
-1.931584583e-23
-7.688340287e-23
-1.792521365e-23
-6.018857478e-23
-1.679011161e-23
-4.438623092e-23
-1.589823656e-23
-2.924212338e-23
-1.524047668e-23
-1.45261002e-23
-1.481273587e-23
-1.462302277e-23
-1.468021288e-08
-1.745590134e-09
-1.291714281e-08
-3.354811489e-09
-1.063850485e-08
-4.384816467e-09
-8.038736242e-09
-5.049887278e-09
-5.268114915e-09
-5.420979715e-09
-2.482746156e-09
-5.487617072e-09
-8.589295234e-11
-4.765880791e-09
-1.971892701e-17
-1.812182861e-10
-2.893851658e-21
-9.801089294e-25
-2.868646376e-21
-4.967485717e-23
-2.819371242e-21
-9.697384673e-23
-2.747798993e-21
-1.409057521e-22
-2.656374279e-21
-1.801244909e-22
-2.548047854e-21
-2.136272184e-22
-2.426078617e-21
-2.407946482e-22
-2.293836446e-21
-2.613873065e-22
-2.154626191e-21
-2.75506851e-22
-2.011545173e-21
-2.835341887e-22
-1.8673796e-21
-2.860563716e-22
-1.72453984e-21
-2.837925877e-22
-1.585030521e-21
-2.775268307e-22
-1.450449217e-21
-2.680518482e-22
-1.322006601e-21
-2.561263214e-22
-1.200561156e-21
-2.424452012e-22
-1.086662375e-21
-2.276218156e-22
-9.805975311e-22
-2.121796616e-22
-8.824383284e-22
-1.965515918e-22
-7.92084905e-22
-1.810842093e-22
-7.093055921e-22
-1.660455847e-22
-6.337716288e-22
-1.516347758e-22
-5.650865774e-22
-1.379920108e-22
-5.028105803e-22
-1.252087326e-22
-4.464798419e-22
-1.133369862e-22
-3.956218534e-22
-1.023978519e-22
-3.497669362e-22
-9.238878933e-23
-3.084566764e-22
-8.32898713e-23
-2.712497939e-22
-7.506895885e-23
-2.377259312e-22
-6.768591322e-23
-2.074877906e-22
-6.109596059e-23
-1.80161979e-22
-5.525233249e-23
-1.553988634e-22
-5.010830088e-23
-1.328716801e-22
-4.561871843e-23
-1.122750949e-22
-4.174116265e-23
-9.332336706e-23
-3.843677036e-23
-7.574823862e-23
-3.56708381e-23
-5.929665375e-23
-3.341325521e-23
-4.372845049e-23
-3.163882514e-23
-2.881442272e-23
-3.032748245e-23
-1.433638845e-23
-2.946411405e-23
-2.903593193e-23
-1.607766614e-08
-2.938832512e-09
-1.394599991e-08
-5.486477724e-09
-1.131589278e-08
-7.014923609e-09
-8.423426373e-09
-7.94235369e-09
-5.436544874e-09
-8.407861214e-09
-2.516055756e-09
-8.408106197e-09
-8.811308481e-11
-7.193823477e-09
-1.720493322e-17
-2.693313645e-10
-2.942915738e-21
-1.37424408e-24
-2.915937771e-21
-7.665825996e-23
-2.863296433e-21
-1.496267688e-22
-2.787012729e-21
-2.172072329e-22
-2.689873917e-21
-2.77287011e-22
-2.575214089e-21
-3.283166002e-22
-2.446671784e-21
-3.693722967e-22
-2.307957892e-21
-4.001422702e-22
-2.16265646e-21
-4.208550148e-22
-2.014070947e-21
-4.321720154e-22
-1.865119731e-21
-4.350653955e-22
-1.718278041e-21
-4.306974843e-22
-1.575559327e-21
-4.203140462e-22
-1.438527161e-21
-4.051576981e-22
-1.308328544e-21
-3.864036844e-22
-1.185740385e-21
-3.651170415e-22
-1.071222384e-21
-3.422282993e-22
-9.649711935e-22
-3.185239948e-22
-8.669722861e-22
-2.946481538e-22
-7.77047276e-22
-2.711112326e-22
-6.948954851e-22
-2.483035878e-22
-6.20129322e-22
-2.265111855e-22
-5.523035606e-22
-2.059318837e-22
-4.909389406e-22
-1.866911545e-22
-4.355406963e-22
-1.688565445e-22
-3.856126927e-22
-1.52450499e-22
-3.406678589e-22
-1.374614102e-22
-3.002355646e-22
-1.238529069e-22
-2.638665257e-22
-1.115715015e-22
-2.31135746e-22
-1.005527641e-22
-2.0164393e-22
-9.072621814e-23
-1.750177227e-22
-8.201915251e-23
-1.509090698e-22
-7.43595367e-23
-1.289939308e-22
-6.767820776e-23
-1.089705298e-22
-6.191047758e-23
-9.055728486e-23
-5.699728758e-23
-7.349053023e-23
-5.288601737e-23
-5.752212372e-23
-4.953103204e-23
-4.241703245e-23
-4.689402513e-23
-2.795099028e-23
-4.494416346e-23
-1.390812025e-23
-4.365794087e-23
-4.301859941e-23
-1.823923166e-08
-4.600450123e-09
-1.548026289e-08
-8.245446505e-09
-1.227381512e-08
-1.022137139e-08
-8.921591643e-09
-1.129457716e-08
-5.617571906e-09
-1.171188094e-08
-2.524652611e-09
-1.150102548e-08
-8.799657779e-11
-9.630479504e-09
5.576864925e-18
-3.573279348e-10
-3.018741884e-21
-1.972812479e-24
-2.988894328e-21
-1.065111664e-22
-2.930866355e-21
-2.076661175e-22
-2.847084773e-21
-3.010062809e-22
-2.740898894e-21
-3.834961987e-22
-2.616268227e-21
-4.52976339e-22
-2.477442895e-21
-5.082324086e-22
-2.328673936e-21
-5.489516581e-22
-2.173978311e-21
-5.755966496e-22
-2.016970127e-21
-5.892317129e-22
-1.860758037e-21
-5.913344172e-22
-1.707900805e-21
-5.836169719e-22
-1.560408845e-21
-5.678734826e-22
-1.419778464e-21
-5.458606669e-22
-1.287046547e-21
-5.192131808e-22
-1.16285557e-21
-4.893904645e-22
-1.047521296e-21
-4.576497551e-22
-9.410979014e-22
-4.250391654e-22
-8.434373144e-22
-3.924049671e-22
-7.542410595e-22
-3.604080124e-22
-6.731040711e-22
-3.295452424e-22
-5.995506472e-22
-3.001732548e-22
-5.330631691e-22
-2.725318189e-22
-4.731044431e-22
-2.467659777e-22
-4.191345932e-22
-2.229459556e-22
-3.706234226e-22
-2.010845149e-22
-3.270590889e-22
-1.811516904e-22
-2.879538378e-22
-1.630870189e-22
-2.528474366e-22
-1.468094887e-22
-2.213088371e-22
-1.322254826e-22
-1.929365049e-22
-1.192350082e-22
-1.673577617e-22
-1.077364959e-22
-1.44227418e-22
-9.763042476e-23
-1.232259059e-22
-8.88220085e-23
-1.040570772e-22
-8.122313805e-23
-8.644578686e-23
-7.475375034e-23
-7.01353537e-23
-6.934276035e-23
-5.48849629e-23
-6.492866573e-23
-4.046705343e-23
-6.145990538e-23
-2.666468405e-23
-5.889502509e-23
-1.326873635e-23
-5.720269388e-23
-5.636170685e-23
-2.125214332e-08
-7.038899088e-09
-1.751123589e-08
-1.198635394e-08
-1.344132548e-08
-1.429128182e-08
-9.434580817e-09
-1.530132183e-08
-5.723827527e-09
-1.542263422e-08
-2.458196548e-09
-1.476665646e-08
-8.601121319e-11
-1.200266484e-08
2.345942451e-17
-4.433391246e-10
-3.123992973e-21
-2.704645393e-24
-3.090031794e-21
-1.404776908e-22
-3.024191372e-21
-2.735179015e-22
-2.929563911e-21
-3.956511848e-22
-2.810372971e-21
-5.027104172e-22
-2.671522732e-21
-5.918556126e-22
-2.518164449e-21
-6.616254271e-22
-2.355324236e-21
-7.118322502e-22
-2.187620746e-21
-7.43346093e-22
-2.019081375e-21
-7.57822535e-22
-1.853049545e-21
-7.574231109e-22
-1.692166084e-21
-7.445626152e-22
-1.538404189e-21
-7.217027742e-22
-1.393138263e-21
-6.911990946e-22
-1.257230107e-21
-6.551988255e-22
-1.131120094e-21
-6.155828274e-22
-1.014914931e-21
-5.739419963e-22
-9.084670031e-22
-5.315787626e-22
-8.114428414e-22
-4.895252423e-22
-7.233800704e-22
-4.485711904e-22
-6.437332812e-22
-4.092965752e-22
-5.71909936e-22
-3.721051178e-22
-5.072976789e-22
-3.372564012e-22
-4.492844851e-22
-3.048951323e-22
-3.972730032e-22
-2.750768583e-22
-3.506902965e-22
-2.477899228e-22
-3.089940132e-22
-2.22973772e-22
-2.716758403e-22
-2.00533901e-22
-2.382629314e-22
-1.803538286e-22
-2.083178558e-22
-1.623045192e-22
-1.814374957e-22
-1.462516651e-22
-1.572512175e-22
-1.320612106e-22
-1.354185619e-22
-1.196034584e-22
-1.156266357e-22
-1.087560546e-22
-9.758733458e-23
-9.94061e-23
-8.103448983e-23
-9.145159443e-23
-6.572100167e-23
-8.480238302e-23
-5.141599559e-23
-7.938073714e-23
-3.790201672e-23
-7.51216751e-23
-2.497224699e-23
-7.197310484e-23
-1.242769717e-23
-6.989586549e-23
-6.886376846e-23
-2.517935758e-08
-1.076008449e-08
-1.987372219e-08
-1.729198934e-08
-1.452362279e-08
-1.964138124e-08
-9.652553646e-09
-2.017239098e-08
-5.543674324e-09
-1.953151354e-08
-2.22843331e-09
-1.808189746e-08
-8.402588724e-11
-1.414707225e-08
7.270930819e-18
-5.273649705e-10
-3.262640862e-21
-2.963227601e-24
-3.223047173e-21
-1.80076725e-22
-3.146303861e-21
-3.502725772e-22
-3.036608966e-21
-5.053635251e-22
-2.899510868e-21
-6.398317979e-22
-2.741291604e-21
-7.501039151e-22
-2.568375608e-21
-8.345761631e-22
-2.386846336e-21
-8.934019062e-22
-2.202107972e-21
-9.281304167e-22
-2.018694001e-21
-9.41287964e-22
-1.840201336e-21
-9.359726476e-22
-1.669318e-21
-9.155081408e-22
-1.507911228e-21
-8.831769512e-22
-1.357147383e-21
-8.4203545e-22
-1.217622051e-21
-7.948016553e-22
-1.089485766e-21
-7.438014728e-22
-9.725568513e-22
-6.909579994e-22
-8.664174266e-22
-6.378098662e-22
-7.704916859e-22
-5.855471068e-22
-6.841074717e-22
-5.350558219e-22
-6.065431207e-22
-4.869654801e-22
-5.370619425e-22
-4.416948243e-22
-4.749366881e-22
-3.994939912e-22
-4.194661534e-22
-3.604816383e-22
-3.699857658e-22
-3.24676677e-22
-3.258736742e-22
-2.920247259e-22
-2.865535609e-22
-2.624196939e-22
-2.514951239e-22
-2.357210575e-22
-2.202129517e-22
-2.117674418e-22
-1.922643326e-22
-1.90387109e-22
-1.672463937e-22
-1.714059104e-22
-1.447928544e-22
-1.546531956e-22
-1.245705945e-22
-1.399661053e-22
-1.062761719e-22
-1.271926057e-22
-8.963237893e-23
-1.161935617e-22
-7.438489037e-23
-1.068440896e-22
-6.029903138e-23
-9.903438287e-23
-4.715667348e-23
-9.267016568e-23
-3.475325096e-23
-8.767289261e-23
-2.28948769e-23
-8.397979195e-23
-1.139553499e-23
-8.154383148e-23
-8.033367716e-23
-2.95804022e-08
-1.680422202e-08
-2.155411089e-08
-2.531828067e-08
-1.434160538e-08
-2.685388681e-08
-8.50481064e-09
-2.600918576e-08
-4.410177273e-09
-2.362614692e-08
-1.593383845e-09
-2.089869087e-08
-7.665152664e-11
-1.566380454e-08
-1.271904674e-17
-6.040164971e-10
-3.440786248e-21
-3.140807575e-24
-3.393209659e-21
-2.276586626e-22
-3.301367278e-21
-4.421263244e-22
-3.1710594e-21
-6.356888522e-22
-3.009774973e-21
-8.011395123e-22
-2.825764607e-21
-9.341433263e-22
-2.627209075e-21
-1.033166445e-21
-2.421587448e-21
-1.099063927e-21
-2.215280977e-21
-1.134482859e-21
-2.013395271e-21
-1.143225141e-21
-1.819753212e-21
-1.129671592e-21
-1.637002066e-21
-1.098321491e-21
-1.466783295e-21
-1.053463143e-21
-1.309925201e-21
-9.989660722e-22
-1.166631471e-21
-9.381729012e-22
-1.036649975e-21
-8.738653468e-22
-9.194146606e-22
-8.082804219e-22
-8.141590923e-22
-7.431571337e-22
-7.200035448e-22
-6.797987989e-22
-6.360192217e-22
-6.191405837e-22
-5.612737148e-22
-5.618155629e-22
-4.948617027e-22
-5.082153871e-22
-4.359244303e-22
-4.585436221e-22
-3.836609213e-22
-4.128611418e-22
-3.373332855e-22
-3.711237676e-22
-2.962679411e-22
-3.332128057e-22
-2.598541191e-22
-2.989593485e-22
-2.27540651e-22
-2.681632694e-22
-1.988317496e-22
-2.406078086e-22
-1.732822822e-22
-2.160705718e-22
-1.504928659e-22
-1.943316576e-22
-1.301050051e-22
-1.751795266e-22
-1.117964003e-22
-1.584151213e-22
-9.527650449e-23
-1.438546539e-22
-8.028235859e-23
-1.313313999e-22
-6.657471302e-23
-1.206967648e-22
-5.393442205e-23
-1.118208372e-22
-4.215908703e-23
-1.045925931e-22
-3.105991549e-23
-9.891988017e-23
-2.045875999e-23
-9.472928081e-23
-1.018530255e-23
-9.19659328e-23
-9.059336401e-23
-3.405183729e-08
-2.632802321e-08
-2.229198195e-08
-3.707813606e-08
-1.254156572e-08
-3.660430311e-08
-5.296352667e-09
-3.32543989e-08
-1.630730418e-09
-2.729176927e-08
-2.710657154e-10
-2.225835559e-08
-6.230371018e-11
-1.587256649e-08
-1.057097118e-18
-6.663202438e-10
-3.666447544e-21
-3.366092954e-24
-3.607632027e-21
-2.864795305e-22
-3.494893844e-21
-5.548758765e-22
-3.336488415e-21
-7.941117335e-22
-3.142771118e-21
-9.948801028e-22
-2.924791979e-21
-1.152151517e-21
-2.693119754e-21
-1.264873428e-21
-2.457025345e-21
-1.33519874e-21
-2.224045118e-21
-1.367509068e-21
-1.999864175e-21
-1.367457567e-21
-1.788424514e-21
-1.341168151e-21
-1.592163034e-21
-1.294645191e-21
-1.412302911e-21
-1.233390704e-21
-1.249145918e-21
-1.16219561e-21
-1.102335086e-21
-1.085061267e-21
-9.710737336e-22
-1.005209096e-21
-8.542978811e-22
-9.251434022e-22
-7.508054282e-22
-8.467413059e-22
-6.593484919e-22
-7.713519007e-22
-5.786961577e-22
-6.99893378e-22
-5.076745565e-22
-6.329417619e-22
-4.451902427e-22
-5.708082741e-22
-3.902417302e-22
-5.136045159e-22
-3.419229552e-22
-4.612959347e-22
-2.994214809e-22
-4.137447203e-22
-2.620134852e-22
-3.707435607e-22
-2.290569581e-22
-3.320417326e-22
-1.999840801e-22
-2.973649156e-22
-1.742934151e-22
-2.664299637e-22
-1.51542312e-22
-2.38955695e-22
-1.313397412e-22
-2.14670584e-22
-1.133396823e-22
-1.933180804e-22
-9.723510065e-23
-1.746601387e-22
-8.275250866e-23
-1.584794227e-22
-6.964707491e-23
-1.4458055e-22
-5.769823112e-23
-1.327906619e-22
-4.670571791e-23
-1.22959537e-22
-3.64860075e-23
-1.149594186e-22
-2.686904222e-23
-1.086846835e-22
-1.76952299e-23
-1.04051448e-22
-8.812642868e-24
-1.009971849e-22
-9.948040161e-23
-4.585163757e-08
-3.729063699e-08
-3.167449595e-08
-5.125527771e-08
-1.752075302e-08
-5.075804611e-08
-5.391158719e-09
-4.538399328e-08
7.35271111e-10
-3.341819923e-08
1.159503552e-09
-2.268258811e-08
-1.549420862e-10
-1.455812084e-08
1.399976055e-17
-8.212623267e-10
-3.950744468e-21
-4.143682915e-24
-3.875966375e-21
-3.612629741e-22
-3.734083255e-21
-6.967703693e-22
-3.537231667e-21
-9.909807804e-22
-3.300037256e-21
-1.232097812e-21
-3.037524612e-21
-1.414693221e-21
-2.763466915e-21
-1.53896589e-21
-2.489363873e-21
-1.609342196e-21
-2.224024175e-21
-1.632894759e-21
-1.973604725e-21
-1.617928512e-21
-1.741929017e-21
-1.57290077e-21
-1.530932463e-21
-1.505703978e-21
-1.341127794e-21
-1.423262825e-21
-1.172027659e-21
-1.331368306e-21
-1.02249542e-21
-1.234671056e-21
-8.910174143e-22
-1.136769516e-21
-7.759025228e-22
-1.04034544e-21
-6.754206096e-22
-9.473149576e-22
-5.878928473e-22
-8.589758482e-22
-5.117460972e-22
-7.761406086e-22
-4.455416274e-22
-6.992508505e-22
-3.879863132e-22
-6.284721828e-22
-3.37932462e-22
-5.637707703e-22
-2.943707065e-22
-5.049737303e-22
-2.5641907e-22
-4.518158579e-22
-2.23310288e-22
-4.03975125e-22
-1.943787278e-22
-3.61099173e-22
-1.690477246e-22
-3.228247104e-22
-1.46817791e-22
-2.887914109e-22
-1.272559202e-22
-2.586516093e-22
-1.099860492e-22
-2.320768342e-22
-9.468065556e-23
-2.087619924e-22
-8.105340921e-23
-1.884278442e-22
-6.885277305e-23
-1.708222588e-22
-5.78564368e-23
-1.557206256e-22
-4.786646832e-23
-1.429257063e-22
-3.87050722e-23
-1.322671418e-22
-3.021085361e-23
-1.23600774e-22
-2.223549457e-23
-1.16807902e-22
-1.464075961e-23
-1.117945589e-22
-7.295756291e-24
-1.08490874e-22
-1.068505627e-22
-7.96752362e-08
-4.452179362e-08
-6.567079492e-08
-6.525971895e-08
-4.50452386e-08
-7.138360241e-08
-2.178285482e-08
-6.864637706e-08
-4.353299019e-09
-5.084775511e-08
8.673818286e-10
-2.790326905e-08
-5.753314478e-10
-1.311540763e-08
-2.073536655e-18
-1.396593743e-09
-4.309587062e-21
-7.539134241e-24
-4.211391209e-21
-4.594641792e-22
-4.028234797e-21
-8.79938156e-22
-3.778321578e-21
-1.240911462e-21
-3.482633621e-21
-1.527809074e-21
-3.161819336e-21
-1.735536573e-21
-2.833878492e-21
-1.866941507e-21
-2.512957869e-21
-1.930303241e-21
-2.209100131e-21
-1.936798499e-21
-1.928616375e-21
-1.898463774e-21
-1.674766792e-21
-1.826807276e-21
-1.448520222e-21
-1.732012795e-21
-1.249256495e-21
-1.622594018e-21
-1.075348378e-21
-1.505348998e-21
-9.246072731e-22
-1.385489728e-21
-7.946029082e-22
-1.266856312e-21
-6.828785235e-22
-1.152156988e-21
-5.870855598e-22
-1.043199678e-21
-5.050598151e-22
-9.410977968e-22
-4.348571681e-22
-8.464437554e-22
-3.747627925e-22
-7.594498645e-22
-3.232840388e-22
-6.800595511e-22
-2.79134099e-22
-6.080331339e-22
-2.412112271e-22
-5.430126632e-22
-2.085765785e-22
-4.845700287e-22
-1.804325227e-22
-4.322419846e-22
-1.561024666e-22
-3.85555131e-22
-1.350126895e-22
-3.44043301e-22
-1.166763497e-22
-3.072592863e-22
-1.00679622e-22
-2.747824028e-22
-8.666981333e-23
-2.462230442e-22
-7.43452486e-23
-2.212250976e-22
-6.344670241e-23
-1.994668715e-22
-5.375015513e-23
-1.806610278e-22
-4.5060667e-23
-1.645538746e-22
-3.720718408e-23
-1.509242865e-22
-3.003811179e-23
-1.395824439e-22
-2.341751241e-23
-1.30368531e-22
-1.722180266e-23
-1.231514916e-22
-1.133684364e-23
-1.17827914e-22
-5.655329831e-24
-1.143210935e-22
-1.125803067e-22
-1.262945389e-07
-4.564597246e-08
-1.156662756e-07
-7.588798232e-08
-9.303222579e-08
-9.401765218e-08
-5.993443112e-08
-1.017441717e-07
-2.503289172e-08
-8.574929453e-08
-3.942645082e-09
-4.899351571e-08
-1.001984126e-09
-1.605606865e-08
-1.372193375e-17
-2.398577908e-09
-4.765737928e-21
-1.50122024e-23
-4.63175742e-21
-5.934500408e-22
-4.389135371e-21
-1.122571581e-21
-4.065193716e-21
-1.564870583e-21
-3.690375268e-21
-1.90265083e-21
-3.293265535e-21
-2.132675379e-21
-2.897295969e-21
-2.262945855e-21
-2.51951318e-21
-2.308126459e-21
-2.170822838e-21
-2.285534853e-21
-1.85701071e-21
-2.212327418e-21
-1.580014814e-21
-2.103860106e-21
-1.339135387e-21
-1.972954481e-21
-1.132037503e-21
-1.829759381e-21
-9.555082861e-22
-1.681950804e-21
-8.059873853e-22
-1.535088209e-21
-6.799126156e-22
-1.393013529e-21
-5.73926777e-22
-1.258230006e-21
-4.849866403e-22
-1.132231588e-21
-4.104068368e-22
-1.015773821e-21
-3.478629971e-22
-9.090881125e-22
-2.953712843e-22
-8.12046234e-22
-2.512558359e-22
-7.24283633e-22
-2.14111492e-22
-6.452899206e-22
-1.827662805e-22
-5.744739552e-22
-1.562461714e-22
-5.112096799e-22
-1.337433421e-22
-4.548676377e-22
-1.145884041e-22
-4.048359911e-22
-9.822657475e-23
-3.605339643e-22
-8.419752108e-23
-3.214198962e-22
-7.211848559e-23
-2.869955246e-22
-6.167026061e-23
-2.568076912e-22
-5.258558798e-23
-2.304483313e-22
-4.463959213e-23
-2.07553369e-22
-3.764189792e-23
-1.878009642e-22
-3.143013116e-23
-1.709094225e-22
-2.586454357e-23
-1.566349913e-22
-2.082354454e-23
-1.447696925e-22
-1.619995669e-23
-1.351392959e-22
-1.189784207e-23
-1.276015053e-22
-7.829769986e-24
-1.220444011e-22
-3.914416987e-24
-1.183851711e-22
-1.165691468e-22
-1.455094919e-07
-3.948720287e-08
-1.452044046e-07
-7.619306972e-08
-1.32602982e-07
-1.066190748e-07
-1.037565161e-07
-1.305906377e-07
-6.009137041e-08
-1.294144403e-07
-1.764422838e-08
-9.144065776e-08
-4.75961861e-10
-3.322433514e-08
3.130633773e-18
-2.874539827e-09
-5.351687795e-21
-5.363210526e-23
-5.160724631e-21
-7.844185606e-22
-4.83134608e-21
-1.451961511e-21
-4.402957722e-21
-1.99327641e-21
-3.920439642e-21
-2.385192223e-21
-3.423609112e-21
-2.629534987e-21
-2.942562953e-21
-2.744026801e-21
-2.497007181e-21
-2.75372267e-21
-2.097692046e-21
-2.684896009e-21
-1.748607405e-21
-2.561463585e-21
-1.449159862e-21
-2.403364594e-21
-1.195978619e-21
-2.226197993e-21
-9.842566932e-22
-2.041548798e-21
-8.086648821e-22
-1.857615218e-21
-6.639252115e-22
-1.679905474e-21
-5.451365593e-22
-1.511884642e-21
-4.479321367e-22
-1.355521623e-21
-3.685300338e-22
-1.211725479e-21
-3.037204911e-22
-1.080679601e-21
-2.508193012e-22
-9.620898363e-22
-2.076061371e-22
-8.553640716e-22
-1.722591735e-22
-7.597392473e-22
-1.432924018e-22
-6.743691528e-22
-1.194988633e-22
-5.983835921e-22
-9.990107499e-23
-5.309270285e-22
-8.370879611e-23
-4.711827589e-22
-7.028367322e-23
-4.183870548e-22
-5.911001914e-23
-3.718364711e-22
-4.977088708e-23
-3.308906034e-22
-4.192861492e-23
-2.949719021e-22
-3.530908295e-23
-2.635636642e-22
-2.968901891e-23
-2.362069753e-22
-2.488578086e-23
-2.124971277e-22
-2.074913922e-23
-1.920798668e-22
-1.715466162e-23
-1.746476999e-22
-1.39983748e-23
-1.599364139e-22
-1.11924375e-23
-1.477218976e-22
-8.661607306e-24
-1.378173212e-22
-6.340324443e-24
-1.300707052e-22
-4.170267047e-24
-1.243628913e-22
-2.098256954e-24
-1.206059234e-22
-1.187418349e-22
-1.101102294e-07
-2.586428806e-08
-1.242384712e-07
-6.206482813e-08
-1.311560302e-07
-9.970151588e-08
-1.239772767e-07
-1.377693912e-07
-9.260656793e-08
-1.607851493e-07
-4.164166622e-08
-1.424055596e-07
-3.564114261e-09
-7.13018871e-08
-2.825701912e-18
-6.438654043e-09
-6.093013002e-21
-1.229278673e-22
-5.827946848e-21
-1.049490071e-21
-5.372545118e-21
-1.907374623e-21
-4.79488242e-21
-2.570956581e-21
-4.164870651e-21
-3.015227309e-21
-3.538225842e-21
-3.256208879e-21
-2.95238989e-21
-3.329897547e-21
-2.428299878e-21
-3.277853127e-21
-1.974359158e-21
-3.138882757e-21
-1.5905863e-21
-2.945287977e-21
-1.272051116e-21
-2.721956732e-21
-1.011370372e-21
-2.486941017e-21
-8.003506308e-22
-2.252636041e-21
-6.309724533e-22
-2.027066008e-21
-4.95914221e-22
-1.815041313e-21
-3.887780887e-22
-1.619103247e-21
-3.041369154e-22
-1.440250004e-21
-2.374826923e-22
-1.278471505e-21
-1.851277737e-22
-1.133130771e-21
-1.440897294e-22
-1.003228429e-21
-1.119770898e-22
-8.875814e-22
-8.688473552e-23
-7.84940268e-22
-6.730257057e-23
-6.940637942e-22
-5.203822273e-23
-6.137640547e-22
-4.015299264e-23
-5.429318355e-22
-3.090958014e-23
-4.805490305e-22
-2.372989232e-23
-4.256927004e-22
-1.816126796e-23
-3.775339653e-22
-1.384960603e-23
-3.353338577e-22
-1.05180858e-23
-2.984375449e-22
-7.950373472e-24
-2.662678348e-22
-5.977402513e-24
-2.383185436e-22
-4.466984732e-24
-2.141480832e-22
-3.3156531e-24
-1.933734765e-22
-2.442256701e-24
-1.75664913e-22
-1.782925699e-24
-1.607408975e-22
-1.287102335e-24
-1.483640055e-22
-9.143962692e-25
-1.38337239e-22
-6.320714581e-25
-1.305009633e-22
-4.130096939e-25
-1.247304021e-22
-2.340247464e-25
-1.209336666e-22
-1.190502981e-22
-3.463015042e-08
-9.046495587e-09
-5.750008033e-08
-3.919489828e-08
-8.12728011e-08
-7.592879518e-08
-1.022033388e-07
-1.168388535e-07
-1.031074861e-07
-1.59881002e-07
-6.785105539e-08
-1.776619906e-07
-1.550933231e-08
-1.236436103e-07
-1.526014558e-17
-2.194798632e-08
-7.047863762e-21
-9.465580764e-23
-6.685310213e-21
-1.412048977e-21
-6.036001298e-21
-2.556694922e-21
-5.239232548e-21
-3.367742807e-21
-4.406031524e-21
-3.848451655e-21
-3.612121761e-21
-4.05014773e-21
-2.900539106e-21
-4.041515001e-21
-2.289490745e-21
-3.88894194e-21
-1.780888645e-21
-3.647530892e-21
-1.367345212e-21
-3.358882952e-21
-1.037097319e-21
-3.052261588e-21
-7.771054896e-22
-2.746995135e-21
-5.748046404e-22
-2.455004402e-21
-4.189604654e-22
-2.182982807e-21
-2.999811543e-22
-1.934098241e-21
-2.099248059e-22
-1.709242081e-21
-1.423552435e-22
-1.507906786e-21
-9.213697433e-23
-1.328781589e-21
-5.521952862e-23
-1.170144481e-21
-2.843646439e-23
-1.030112056e-21
-9.329762245e-24
-9.067928047e-22
3.997668274e-24
-7.983763789e-22
1.300270636e-23
-7.031813231e-22
1.879907924e-23
-6.196765569e-22
2.223442021e-23
-5.464867682e-22
2.39508882e-23
-4.823883725e-22
2.443253224e-23
-4.263003174e-22
2.404210914e-23
-3.772724274e-22
2.304958856e-23
-3.344729448e-22
2.16541516e-23
-2.971762459e-22
2.000112254e-23
-2.647512794e-22
1.819497004e-23
-2.366510038e-22
1.63092687e-23
-2.12402935e-22
1.439431588e-23
-1.91600817e-22
1.248294427e-23
-1.738973733e-22
1.059494989e-23
-1.589980708e-22
8.740461203e-24
-1.466558162e-22
6.922502406e-24
-1.366665067e-22
5.138948564e-24
-1.288653575e-22
3.38402769e-24
-1.231239448e-22
1.649493532e-24
-1.193479051e-22
-1.174752493e-22
3.896580667e-08
1.789431641e-09
1.658249814e-08
-1.68115898e-08
-1.288629668e-08
-4.646000045e-08
-4.999416353e-08
-7.973098666e-08
-8.547534804e-08
-1.243998174e-07
-8.258898586e-08
-1.805483528e-07
-3.345812017e-08
-1.727744762e-07
1.695421147e-17
-5.540610658e-08
-8.457655334e-21
-3.33611312e-22
-7.829780372e-21
-2.039929296e-21
-6.847065049e-21
-3.53942163e-21
-5.72019675e-21
-4.494628585e-21
-4.608069936e-21
-4.960601795e-21
-3.603820213e-21
-5.054426545e-21
-2.748241074e-21
-4.897128944e-21
-2.048287419e-21
-4.588936052e-21
-1.492386867e-21
-4.203477485e-21
-1.060820414e-21
-3.790500954e-21
-7.318904424e-22
-3.381248529e-21
-4.85148221e-22
-2.993799653e-21
-3.027988963e-22
-2.637421247e-21
-1.700803742e-22
-2.315773962e-21
-7.512247679e-23
-2.029133765e-21
-8.582978445e-24
-1.775864074e-21
3.677854367e-23
-1.553355538e-21
6.650953186e-23
-1.358604403e-21
8.482233779e-23
-1.188553563e-21
9.489182351e-23
-1.040282115e-21
9.909505753e-23
-9.111007532e-22
9.920036783e-23
-7.985903819e-22
9.651433896e-23
-7.006077976e-22
9.199497698e-23
-6.15273337e-22
8.633821335e-23
-5.409496091e-22
8.004368741e-23
-4.762167337e-22
7.34645752e-23
-4.198471913e-22
6.684521473e-23
-3.707819653e-22
6.034943822e-23
-3.281087893e-22
5.408184947e-23
-2.910428086e-22
4.810375731e-23
-2.589096744e-22
4.244506727e-23
-2.311309398e-22
3.711312064e-23
-2.072115548e-22
3.209923019e-23
-1.867292332e-22
2.738348058e-23
-1.693254688e-22
2.293822349e-23
-1.546979944e-22
1.873059355e-23
-1.425944987e-22
1.472429281e-23
-1.328074452e-22
1.088083246e-23
-1.251698579e-22
7.16037689e-24
-1.195519653e-22
3.522302755e-24
-1.158586161e-22
-1.140273965e-22
7.077262247e-08
1.127815496e-09
5.976576207e-08
-5.804729473e-09
3.621261494e-08
-2.290685347e-08
1.162451893e-09
-4.468082373e-08
-5.031039723e-08
-7.29269683e-08
-8.334038329e-08
-1.475183667e-07
-5.315323446e-08
-2.029616251e-07
7.039860231e-17
-1.085593412e-07
-1.039610439e-20
-7.365393813e-22
-9.32916002e-21
-3.10687902e-21
-7.802545344e-21
-5.066047693e-21
-6.186752914e-21
-6.110438495e-21
-4.7024982e-21
-6.444879838e-21
-3.447022816e-21
-6.309931025e-21
-2.440415842e-21
-5.903770726e-21
-1.663077362e-21
-5.366314993e-21
-1.07956646e-21
-4.787034433e-21
-6.516583733e-22
-4.218460595e-21
-3.444879213e-22
-3.688475957e-21
-1.287881533e-22
-3.209561724e-21
1.88469692e-23
-2.785123896e-21
1.165679665e-22
-2.413567599e-21
1.781602252e-22
-2.090803658e-21
2.139405436e-22
-1.811726895e-21
2.315449362e-22
-1.57104717e-21
2.365749517e-22
-1.363726253e-21
2.331072108e-22
-1.185182107e-21
2.240852627e-22
-1.031360751e-21
2.116161291e-22
-8.987363442e-22
1.971923369e-22
-7.842752927e-22
1.81856975e-22
-6.853849495e-22
1.663257943e-22
-5.99858309e-22
1.510772178e-22
-5.258206481e-22
1.364185175e-22
-4.616809315e-22
1.225343563e-22
-4.060890273e-22
1.095223096e-22
-3.578988282e-22
9.741878603e-23
-3.161368979e-22
8.621787193e-23
-2.799760571e-22
7.588496368e-23
-2.487132644e-22
6.636656077e-23
-2.217511742e-22
5.759723233e-23
-1.985828041e-22
4.95045038e-23
-1.787788224e-22
4.201221484e-23
-1.61977036e-22
3.50427554e-23
-1.478737266e-22
2.851848075e-23
-1.362165474e-22
2.236252813e-23
-1.267987427e-22
1.64992001e-23
-1.194545012e-22
1.085403777e-23
-1.140552897e-22
5.35367668e-24
-1.105070506e-22
-1.087481739e-22
7.187457452e-08
-3.635047031e-10
6.918955396e-08
-3.119708984e-09
5.635065205e-08
-1.006795166e-08
3.222599803e-08
-2.055616985e-08
-1.161394052e-08
-2.908702982e-08
-7.01740336e-08
-8.895827365e-08
-6.89353201e-08
-2.042003387e-07
7.48844888e-17
-1.774946612e-07
-1.323748773e-20
-1.491482398e-21
-1.128872999e-20
-5.055642127e-21
-8.847954541e-21
-7.50683453e-21
-6.522393005e-21
-8.436017515e-21
-4.568538293e-21
-8.39875788e-21
-3.041561237e-21
-7.836937181e-21
-1.903407157e-21
-7.041959619e-21
-1.084059407e-21
-6.185703208e-21
-5.111320843e-22
-5.360007807e-21
-1.217362268e-22
-4.607908011e-21
1.344091921e-22
-3.944678357e-21
2.956575656e-22
-3.370872406e-21
3.904236392e-22
-2.879957502e-21
4.393573713e-22
-2.462573977e-21
4.572633867e-22
-2.108787315e-21
4.546454164e-22
-1.809191435e-21
4.388887264e-22
-1.555377726e-21
4.151393374e-22
-1.340068707e-21
3.869461709e-22
-1.157085234e-21
3.567248159e-22
-1.001239987e-21
3.26090126e-22
-8.682063871e-22
2.960937001e-22
-7.543875781e-22
2.673929764e-22
-6.567967483e-22
2.403713996e-22
-5.729528937e-22
2.15223676e-22
-5.007925487e-22
1.920161446e-22
-4.385963071e-22
1.707294161e-22
-3.849283049e-22
1.512883701e-22
-3.385867007e-22
1.335831373e-22
-2.985633064e-22
1.174836473e-22
-2.640107386e-22
1.028495854e-22
-2.342157099e-22
8.953707468e-23
-2.085773098e-22
7.740302246e-23
-1.865893384e-22
6.630780669e-23
-1.678259332e-22
5.611678425e-23
-1.519298786e-22
4.670096703e-23
-1.386031098e-22
3.793711332e-23
-1.275990256e-22
2.97074114e-23
-1.187162994e-22
2.189888128e-23
-1.117939509e-22
1.440258449e-23
-1.067074879e-22
7.112705548e-24
-1.033659755e-22
-1.017099255e-22
6.773599618e-08
-6.430096343e-10
6.650756522e-08
-1.891278062e-09
6.031720313e-08
-3.87758964e-09
4.64736071e-08
-6.712573895e-09
2.194040155e-08
-4.553824355e-09
-4.039794156e-08
-2.661993063e-08
-7.425088961e-08
-1.703473906e-07
-1.196010522e-17
-2.517455507e-07
-1.76164344e-20
-3.65691613e-21
-1.374242448e-20
-8.929657414e-21
-9.779904668e-21
-1.146936573e-20
-6.487338199e-21
-1.172860147e-20
-4.008173188e-21
-1.087794622e-20
-2.247442846e-21
-9.597696624e-21
-1.047610125e-21
-8.241827156e-21
-2.5857945e-22
-6.974774351e-21
2.408910831e-22
-5.859524395e-21
5.414904458e-22
-4.908558937e-21
7.082476356e-22
-4.111492532e-21
7.866191324e-22
-3.449306215e-21
8.078567302e-22
-2.901262637e-21
7.931909801e-22
-2.447980878e-21
7.569012422e-22
-2.072575222e-21
7.084954593e-22
-1.760868167e-21
6.542285975e-22
-1.501198115e-21
5.981487121e-22
-1.284080669e-21
5.428130212e-22
-1.101845841e-21
4.897763769e-22
-9.483039405e-22
4.399238496e-22
-8.184585987e-22
3.936969188e-22
-7.08269365e-22