/*--------------------------------*- C++ -*----------------------------------*\
  =========                 |
  \\      /  F ield         | OpenFOAM: The Open Source CFD Toolbox
   \\    /   O peration     | Website:  https://openfoam.org
    \\  /    A nd           | Version:  6
     \\/     M anipulation  |
\*---------------------------------------------------------------------------*/
FoamFile
{
    version     2.0;
    format      ascii;
    class       volScalarField;
    location    "0.04";
    object      pVap;
}
// * * * * * * * * * * * * * * * * * * * * * * * * * * * * * * * * * * * * * //

dimensions      [1 -1 -2 0 0 0 0];

internalField   nonuniform List<scalar> 
2500
(
55292.60432
55292.60408
55292.6034
55292.60214
55292.60022
55292.59768
55292.59466
55292.5914
1.074259973
1.074254204
1.074252871
1.074252573
1.074252508
1.074252493
1.07425249
1.074252489
1.074252489
1.074252489
1.074252489
1.074252489
1.074252489
1.074252489
1.074252489
1.074252489
1.074252489
1.074252489
1.074252489
1.074252489
1.074252489
1.074252489
1.074252489
1.074252489
1.074252489
1.074252489
1.074252489
1.074252489
1.074252489
1.074252489
1.074252489
1.074252489
1.074252489
1.074252489
1.074252489
1.074252489
1.074252489
1.074252489
1.074252489
1.074252489
1.074252489
1.074252489
55292.63402
55292.63331
55292.63113
55292.62702
55292.62074
55292.61241
55292.60245
55292.59439
1.074277533
1.074258318
1.07425382
1.074252794
1.074252561
1.074252507
1.074252493
1.07425249
1.074252489
1.074252489
1.074252489
1.074252489
1.074252489
1.074252489
1.074252489
1.074252489
1.074252489
1.074252489
1.074252489
1.074252489
1.074252489
1.074252489
1.074252489
1.074252489
1.074252489
1.074252489
1.074252489
1.074252489
1.074252489
1.074252489
1.074252489
1.074252489
1.074252489
1.074252489
1.074252489
1.074252489
1.074252489
1.074252489
1.074252489
1.074252489
1.074252489
1.074252489
55292.67544
55292.67431
55292.6703
55292.66232
55292.64993
55292.63338
55292.61353
55292.59532
1.074303766
1.074264801
1.074255446
1.074253223
1.074252682
1.074252543
1.074252504
1.074252493
1.07425249
1.074252489
1.074252489
1.074252489
1.074252489
1.074252489
1.074252489
1.074252489
1.074252489
1.074252489
1.074252489
1.074252489
1.074252489
1.074252489
1.074252489
1.074252489
1.074252489
1.074252489
1.074252489
1.074252489
1.074252489
1.074252489
1.074252489
1.074252489
1.074252489
1.074252489
1.074252489
1.074252489
1.074252489
1.074252489
1.074252489
1.074252489
1.074252489
1.074252489
55292.73885
55292.73749
55292.731
55292.71725
55292.69543
55292.66605
55292.63076
55292.59522
1.074347577
1.07427653
1.074258772
1.074254249
1.074253019
1.074252655
1.07425254
1.074252504
1.074252493
1.07425249
1.074252489
1.074252489
1.074252489
1.074252489
1.074252489
1.074252489
1.074252489
1.074252489
1.074252489
1.074252489
1.074252489
1.074252489
1.074252489
1.074252489
1.074252489
1.074252489
1.074252489
1.074252489
1.074252489
1.074252489
1.074252489
1.074252489
1.074252489
1.074252489
1.074252489
1.074252489
1.074252489
1.074252489
1.074252489
1.074252489
1.074252489
1.074252489
55292.8379
55292.83678
55292.82679
55292.80412
55292.76738
55292.71762
55292.65791
55292.5985
1.074424232
1.07429958
1.074266418
1.07425701
1.074254041
1.074253019
1.074252662
1.074252541
1.074252504
1.074252493
1.07425249
1.074252489
1.074252489
1.074252489
1.074252489
1.074252489
1.074252489
1.074252489
1.074252489
1.074252489
1.074252489
1.074252489
1.074252489
1.074252489
1.074252489
1.074252489
1.074252489
1.074252489
1.074252489
1.074252489
1.074252489
1.074252489
1.074252489
1.074252489
1.074252489
1.074252489
1.074252489
1.074252489
1.074252489
1.074252489
1.074252489
1.074252489
55292.99
55292.99002
55292.97511
55292.93884
55292.8789
55292.79743
55292.69984
55292.60844
1.074563559
1.0743487
1.074285753
1.074264969
1.07425722
1.0742542
1.074253062
1.074252665
1.074252539
1.074252502
1.074252492
1.074252489
1.074252489
1.074252489
1.074252489
1.074252489
1.074252489
1.074252489
1.074252489
1.074252489
1.074252489
1.074252489
1.074252489
1.074252489
1.074252489
1.074252489
1.074252489
1.074252489
1.074252489
1.074252489
1.074252489
1.074252489
1.074252489
1.074252489
1.074252489
1.074252489
1.074252489
1.074252489
1.074252489
1.074252489
1.074252489
1.074252489
55293.21414
55293.21694
55293.19549
55293.13979
55293.04548
55292.91666
55292.76256
55292.61627
1.074831848
1.07446298
1.074338138
1.074288548
1.07426706
1.074257924
1.074254335
1.07425306
1.07425265
1.074252531
1.074252499
1.074252491
1.074252489
1.074252489
1.074252489
1.074252489
1.074252489
1.074252489
1.074252489
1.074252489
1.074252489
1.074252489
1.074252489
1.074252489
1.074252489
1.074252489
1.074252489
1.074252489
1.074252489
1.074252489
1.074252489
1.074252489
1.074252489
1.074252489
1.074252489
1.074252489
1.074252489
1.074252489
1.074252489
1.074252489
1.074252489
1.074252489
55293.5229
55293.53102
55293.50307
55293.4238
55293.28313
55293.08771
55292.85326
55292.62165
1.075393274
1.074750015
1.074484899
1.074358083
1.074296686
1.074269213
1.074258198
1.074254255
1.074252987
1.074252618
1.07425252
1.074252496
1.07425249
1.074252489
1.074252489
1.074252489
1.074252489
1.074252489
1.074252489
1.074252489
1.074252489
1.074252489
1.074252489
1.074252489
1.074252489
1.074252489
1.074252489
1.074252489
1.074252489
1.074252489
1.074252489
1.074252489
1.074252489
1.074252489
1.074252489
1.074252489
1.074252489
1.074252489
1.074252489
1.074252489
1.074252489
1.074252489
55293.90772
55293.92501
55293.89693
55293.79832
55293.6055
55293.32406
55292.98133
55292.62594
1.076679375
1.07550537
1.074896484
1.074557809
1.074382358
1.074301856
1.074269339
1.07425769
1.074253952
1.074252866
1.074252579
1.074252509
1.074252493
1.07425249
1.074252489
1.074252489
1.074252489
1.074252489
1.074252489
1.074252489
1.074252489
1.074252489
1.074252489
1.074252489
1.074252489
1.074252489
1.074252489
1.074252489
1.074252489
1.074252489
1.074252489
1.074252489
1.074252489
1.074252489
1.074252489
1.074252489
1.074252489
1.074252489
1.074252489
1.074252489
1.074252489
1.074252489
55294.33476
55294.36653
55294.35131
55294.25002
55294.01886
55293.64242
55293.1586
55292.62874
1.079835079
1.077517909
1.076024873
1.075108974
1.074618419
1.074391423
1.074299758
1.074267026
1.074256562
1.074253536
1.074252738
1.074252544
1.0742525
1.074252491
1.074252489
1.074252489
1.074252489
1.074252489
1.074252489
1.074252489
1.074252489
1.074252489
1.074252489
1.074252489
1.074252489
1.074252489
1.074252489
1.074252489
1.074252489
1.074252489
1.074252489
1.074252489
1.074252489
1.074252489
1.074252489
1.074252489
1.074252489
1.074252489
1.074252489
1.074252489
1.074252489
1.074252489
55294.75987
55294.81037
55294.81989
55294.73806
55294.50354
55294.05862
55293.40676
55292.64255
1.087837924
1.082802514
1.079003825
1.076557979
1.075234917
1.074623765
1.074378184
1.074290962
1.074263223
1.074255238
1.07425314
1.074252632
1.074252518
1.074252494
1.07425249
1.074252489
1.074252489
1.074252489
1.074252489
1.074252489
1.074252489
1.074252489
1.074252489
1.074252489
1.074252489
1.074252489
1.074252489
1.074252489
1.074252489
1.074252489
1.074252489
1.074252489
1.074252489
1.074252489
1.074252489
1.074252489
1.074252489
1.074252489
1.074252489
1.074252489
1.074252489
1.074252489
55295.13433
55295.20589
55295.25161
55295.21259
55295.01605
55294.56303
55293.75964
55292.69569
1.108166077
1.096253228
1.086511301
1.080168053
1.076755276
1.075191892
1.074568602
1.074348739
1.074279221
1.074259309
1.074254097
1.074252841
1.074252561
1.074252503
1.074252491
1.074252489
1.074252489
1.074252489
1.074252489
1.074252489
1.074252489
1.074252489
1.074252489
1.074252489
1.074252489
1.074252489
1.074252489
1.074252489
1.074252489
1.074252489
1.074252489
1.074252489
1.074252489
1.074252489
1.074252489
1.074252489
1.074252489
1.074252489
1.074252489
1.074252489
1.074252489
1.074252489
55295.41416
55295.50855
55295.60503
55295.6363
55295.51839
55295.12014
55294.23777
55293.36165
1.159051245
1.129218313
1.104505578
1.088666199
1.080286134
1.076498025
1.075002976
1.074479716
1.0743153
1.074268449
1.07425624
1.074253308
1.074252656
1.074252521
1.074252495
1.07425249
1.074252489
1.074252489
1.074252489
1.074252489
1.074252489
1.074252489
1.074252489
1.074252489
1.074252489
1.074252489
1.074252489
1.074252489
1.074252489
1.074252489
1.074252489
1.074252489
1.074252489
1.074252489
1.074252489
1.074252489
1.074252489
1.074252489
1.074252489
1.074252489
1.074252489
1.074252489
55295.58196
55295.69253
55295.84928
55295.98159
55295.98871
55295.70735
55294.84405
55294.8681
1.285220834
1.207345753
1.145583726
1.107553495
1.087993773
1.079314882
1.075931734
1.074757941
1.074391541
1.07428768
1.07426073
1.074254284
1.074252854
1.074252559
1.074252501
1.074252491
1.074252489
1.074252489
1.074252489
1.074252489
1.074252489
1.074252489
1.074252489
1.074252489
1.074252489
1.074252489
1.074252489
1.074252489
1.074252489
1.074252489
1.074252489
1.074252489
1.074252489
1.074252489
1.074252489
1.074252489
1.074252489
1.074252489
1.074252489
1.074252489
1.074252489
1.074252489
55295.67214
55295.77134
55295.97212
55296.22416
55296.41184
55296.32788
55295.59981
55294.07519
1.604167187
1.389563406
1.235608968
1.147267177
1.103795304
1.085002105
1.077788631
1.075310395
1.074542132
1.074325504
1.074269531
1.07425619
1.07425324
1.074252632
1.074252515
1.074252493
1.07425249
1.074252489
1.074252489
1.074252489
1.074252489
1.074252489
1.074252489
1.074252489
1.074252489
1.074252489
1.074252489
1.074252489
1.074252489
1.074252489
1.074252489
1.074252489
1.074252489
1.074252489
1.074252489
1.074252489
1.074252489
1.074252489
1.074252489
1.074252489
1.074252489
1.074252489
55295.74009
55295.82713
55296.02902
55296.35772
55296.76939
55296.97613
55296.5365
55294.31816
2.473215168
1.821991674
1.428089656
1.226712591
1.134231494
1.095733103
1.081251605
1.076333079
1.074819425
1.07439486
1.074285613
1.074259664
1.074253942
1.074252765
1.074252538
1.074252497
1.07425249
1.074252489
1.074252489
1.074252489
1.074252489
1.074252489
1.074252489
1.074252489
1.074252489
1.074252489
1.074252489
1.074252489
1.074252489
1.074252489
1.074252489
1.074252489
1.074252489
1.074252489
1.074252489
1.074252489
1.074252489
1.074252489
1.074252489
1.074252489
1.074252489
1.074252489
55295.80731
55295.8931
55296.10394
55296.48526
55297.04859
55297.63586
55297.66686
55295.71574
5.21869262
2.916147678
1.839442161
1.379344622
1.189407742
1.114627539
1.087259772
1.078092831
1.075293999
1.074513081
1.074312935
1.074265548
1.074255128
1.07425299
1.074252578
1.074252504
1.074252491
1.074252489
1.074252489
1.074252489
1.074252489
1.074252489
1.074252489
1.074252489
1.074252489
1.074252489
1.074252489
1.074252489
1.074252489
1.074252489
1.074252489
1.074252489
1.074252489
1.074252489
1.074252489
1.074252489
1.074252489
1.074252489
1.074252489
1.074252489
1.074252489
1.074252489
55295.88936
55295.98224
55296.21579
55296.65327
55297.34295
55298.26635
55298.94527
55297.79494
15.70625886
5.992589711
2.741869192
1.664256959
1.28378866
1.14562411
1.096928244
1.080897811
1.076046256
1.07469975
1.074355946
1.074274788
1.074256987
1.074253341
1.074252641
1.074252515
1.074252493
1.074252489
1.074252489
1.074252489
1.074252489
1.074252489
1.074252489
1.074252489
1.074252489
1.074252489
1.074252489
1.074252489
1.074252489
1.074252489
1.074252489
1.074252489
1.074252489
1.074252489
1.074252489
1.074252489
1.074252489
1.074252489
1.074252489
1.074252489
1.074252489
1.074252489
55295.99292
55296.09913
55296.36902
55296.88105
55297.70916
55298.86632
55300.25446
55300.31453
61.1753944
15.5870191
4.803278243
2.185558582
1.436358463
1.192892523
1.111304259
1.085021849
1.077145838
1.07497159
1.074418404
1.074288175
1.074259673
1.074253848
1.074252731
1.07425253
1.074252495
1.07425249
1.074252489
1.074252489
1.074252489
1.074252489
1.074252489
1.074252489
1.074252489
1.074252489
1.074252489
1.074252489
1.074252489
1.074252489
1.074252489
1.074252489
1.074252489
1.074252489
1.074252489
1.074252489
1.074252489
1.074252489
1.074252489
1.074252489
1.074252489
1.074252489
55296.11763
55296.2414
55296.55878
55297.16724
55298.16545
55299.59744
55301.44611
55302.84421
248.4773761
46.39233242
9.621827143
3.118363362
1.668825575
1.259594339
1.130947745
1.090582679
1.078619422
1.075334595
1.074501597
1.07430597
1.074263239
1.07425452
1.074252851
1.07425255
1.074252499
1.07425249
1.074252489
1.074252489
1.074252489
1.074252489
1.074252489
1.074252489
1.074252489
1.074252489
1.074252489
1.074252489
1.074252489
1.074252489
1.074252489
1.074252489
1.074252489
1.074252489
1.074252489
1.074252489
1.074252489
1.074252489
1.074252489
1.074252489
1.074252489
1.074252489
55296.25573
55296.39887
55296.76833
55297.48144
55298.66183
55300.37262
55302.58657
55305.02221
853.0885597
135.9847743
20.49930537
4.715749842
1.99898518
1.345913864
1.155403732
1.097401752
1.080414888
1.075775407
1.074602394
1.074327491
1.074267545
1.07425533
1.074252994
1.074252574
1.074252502
1.074252491
1.074252489
1.074252489
1.074252489
1.074252489
1.074252489
1.074252489
1.074252489
1.074252489
1.074252489
1.074252489
1.074252489
1.074252489
1.074252489
1.074252489
1.074252489
1.074252489
1.074252489
1.074252489
1.074252489
1.074252489
1.074252489
1.074252489
1.074252489
1.074252489
55296.39416
55296.55666
55296.9788
55297.79912
55299.16778
55301.1689
55303.71274
55306.67995
2220.937623
344.3237088
42.25273459
7.219407621
2.425651689
1.446651953
1.182749553
1.104903579
1.08237746
1.076255759
1.074712019
1.074350863
1.074272215
1.074256207
1.07425315
1.0742526
1.074252507
1.074252491
1.074252489
1.074252489
1.074252489
1.074252489
1.074252489
1.074252489
1.074252489
1.074252489
1.074252489
1.074252489
1.074252489
1.074252489
1.074252489
1.074252489
1.074252489
1.074252489
1.074252489
1.074252489
1.074252489
1.074252489
1.074252489
1.074252489
1.074252489
1.074252489
55296.5176
55296.69768
55297.16796
55298.0866
55299.62433
55301.87013
55304.65844
55307.83877
4338.83268
700.3597408
77.35791906
10.58040333
2.906575182
1.549467529
1.209499095
1.112125979
1.084255609
1.07671421
1.074816479
1.074373108
1.074276655
1.074257041
1.074253298
1.074252625
1.07425251
1.074252492
1.074252489
1.074252489
1.074252489
1.074252489
1.074252489
1.074252489
1.074252489
1.074252489
1.074252489
1.074252489
1.074252489
1.074252489
1.074252489
1.074252489
1.074252489
1.074252489
1.074252489
1.074252489
1.074252489
1.074252489
1.074252489
1.074252489
1.074252489
1.074252489
55296.61073
55296.80456
55297.31283
55298.3099
55299.98253
55302.41545
55305.38553
55308.56247
6573.264518
1119.554985
118.6799403
14.09217875
3.34498864
1.635706657
1.231133437
1.117888478
1.085746667
1.0770774
1.074899134
1.074390694
1.074280164
1.074257699
1.074253414
1.074252644
1.074252514
1.074252493
1.074252489
1.074252489
1.074252489
1.074252489
1.074252489
1.074252489
1.074252489
1.074252489
1.074252489
1.074252489
1.074252489
1.074252489
1.074252489
1.074252489
1.074252489
1.074252489
1.074252489
1.074252489
1.074252489
1.074252489
1.074252489
1.074252489
1.074252489
1.074252489
55296.66094
55296.86251
55297.39234
55298.43463
55300.18637
55302.72563
55305.82093
55308.91184
8007.856051
1410.882279
147.9048258
16.42289174
3.612089168
1.685418916
1.243300395
1.121099576
1.08657479
1.077278837
1.074944943
1.074400435
1.074282106
1.074258064
1.074253479
1.074252655
1.074252515
1.074252493
1.074252489
1.074252489
1.074252489
1.074252489
1.074252489
1.074252489
1.074252489
1.074252489
1.074252489
1.074252489
1.074252489
1.074252489
1.074252489
1.074252489
1.074252489
1.074252489
1.074252489
1.074252489
1.074252489
1.074252489
1.074252489
1.074252489
1.074252489
1.074252489
55296.66094
55296.86251
55297.39234
55298.43463
55300.18637
55302.72563
55305.82093
55308.91184
8007.856079
1410.882246
147.9048226
16.42289151
3.612089144
1.685418912
1.243300394
1.121099576
1.08657479
1.077278837
1.074944943
1.074400435
1.074282106
1.074258064
1.074253479
1.074252655
1.074252515
1.074252493
1.074252489
1.074252489
1.074252489
1.074252489
1.074252489
1.074252489
1.074252489
1.074252489
1.074252489
1.074252489
1.074252489
1.074252489
1.074252489
1.074252489
1.074252489
1.074252489
1.074252489
1.074252489
1.074252489
1.074252489
1.074252489
1.074252489
1.074252489
1.074252489
55296.61072
55296.80456
55297.31283
55298.3099
55299.98253
55302.41545
55305.38553
55308.56239
6573.264751
1119.554911
118.6799337
14.09217827
3.344988588
1.635706648
1.231133435
1.117888477
1.085746667
1.0770774
1.074899134
1.074390694
1.074280164
1.074257699
1.074253414
1.074252644
1.074252514
1.074252493
1.074252489
1.074252489
1.074252489
1.074252489
1.074252489
1.074252489
1.074252489
1.074252489
1.074252489
1.074252489
1.074252489
1.074252489
1.074252489
1.074252489
1.074252489
1.074252489
1.074252489
1.074252489
1.074252489
1.074252489
1.074252489
1.074252489
1.074252489
1.074252489
55296.5176
55296.69768
55297.16796
55298.0866
55299.62433
55301.87013
55304.65844
55307.83948
4338.833001
700.3596849
77.35791441
10.58040297
2.906575138
1.549467521
1.209499093
1.112125979
1.084255609
1.07671421
1.074816479
1.074373108
1.074276655
1.074257041
1.074253298
1.074252625
1.07425251
1.074252492
1.074252489
1.074252489
1.074252489
1.074252489
1.074252489
1.074252489
1.074252489
1.074252489
1.074252489
1.074252489
1.074252489
1.074252489
1.074252489
1.074252489
1.074252489
1.074252489
1.074252489
1.074252489
1.074252489
1.074252489
1.074252489
1.074252489
1.074252489
1.074252489
55296.39416
55296.55666
55296.9788
55297.79912
55299.16778
55301.1689
55303.71274
55306.68234
2220.937779
344.3236987
42.25273383
7.219407554
2.425651679
1.446651951
1.182749553
1.104903579
1.08237746
1.076255759
1.074712019
1.074350863
1.074272215
1.074256207
1.07425315
1.0742526
1.074252507
1.074252491
1.074252489
1.074252489
1.074252489
1.074252489
1.074252489
1.074252489
1.074252489
1.074252489
1.074252489
1.074252489
1.074252489
1.074252489
1.074252489
1.074252489
1.074252489
1.074252489
1.074252489
1.074252489
1.074252489
1.074252489
1.074252489
1.074252489
1.074252489
1.074252489
55296.25573
55296.39887
55296.76833
55297.48143
55298.66183
55300.37262
55302.58657
55305.02626
853.088554
135.9847865
20.49930655
4.715749975
1.998985202
1.345913868
1.155403733
1.097401753
1.080414888
1.075775407
1.074602394
1.074327491
1.074267545
1.07425533
1.074252994
1.074252574
1.074252502
1.074252491
1.074252489
1.074252489
1.074252489
1.074252489
1.074252489
1.074252489
1.074252489
1.074252489
1.074252489
1.074252489
1.074252489
1.074252489
1.074252489
1.074252489
1.074252489
1.074252489
1.074252489
1.074252489
1.074252489
1.074252489
1.074252489
1.074252489
1.074252489
1.074252489
55296.11763
55296.2414
55296.55877
55297.16724
55298.16545
55299.59744
55301.44611
55302.84813
248.4773428
46.39234212
9.621828262
3.118363525
1.668825607
1.259594347
1.130947747
1.090582679
1.078619422
1.075334595
1.074501597
1.07430597
1.074263239
1.07425452
1.074252851
1.07425255
1.074252499
1.07425249
1.074252489
1.074252489
1.074252489
1.074252489
1.074252489
1.074252489
1.074252489
1.074252489
1.074252489
1.074252489
1.074252489
1.074252489
1.074252489
1.074252489
1.074252489
1.074252489
1.074252489
1.074252489
1.074252489
1.074252489
1.074252489
1.074252489
1.074252489
1.074252489
55295.99292
55296.09913
55296.36902
55296.88105
55297.70916
55298.86632
55300.25445
55300.31496
61.17539858
15.58702243
4.803278789
2.18555869
1.43635849
1.19289253
1.11130426
1.085021849
1.077145838
1.07497159
1.074418404
1.074288175
1.074259673
1.074253848
1.074252731
1.07425253
1.074252495
1.07425249
1.074252489
1.074252489
1.074252489
1.074252489
1.074252489
1.074252489
1.074252489
1.074252489
1.074252489
1.074252489
1.074252489
1.074252489
1.074252489
1.074252489
1.074252489
1.074252489
1.074252489
1.074252489
1.074252489
1.074252489
1.074252489
1.074252489
1.074252489
1.074252489
55295.88935
55295.98224
55296.21579
55296.65327
55297.34295
55298.26635
55298.94527
55297.79457
15.70626173
5.992590536
2.741869395
1.664257013
1.283788676
1.145624114
1.096928245
1.080897812
1.076046256
1.07469975
1.074355946
1.074274788
1.074256987
1.074253341
1.074252641
1.074252515
1.074252493
1.074252489
1.074252489
1.074252489
1.074252489
1.074252489
1.074252489
1.074252489
1.074252489
1.074252489
1.074252489
1.074252489
1.074252489
1.074252489
1.074252489
1.074252489
1.074252489
1.074252489
1.074252489
1.074252489
1.074252489
1.074252489
1.074252489
1.074252489
1.074252489
1.074252489
55295.80731
55295.89309
55296.10394
55296.48526
55297.04858
55297.63586
55297.66686
55295.71562
5.218693097
2.916147866
1.839442226
1.379344644
1.189407749
1.114627541
1.087259772
1.078092831
1.075293999
1.074513081
1.074312935
1.074265548
1.074255128
1.07425299
1.074252578
1.074252504
1.074252491
1.074252489
1.074252489
1.074252489
1.074252489
1.074252489
1.074252489
1.074252489
1.074252489
1.074252489
1.074252489
1.074252489
1.074252489
1.074252489
1.074252489
1.074252489
1.074252489
1.074252489
1.074252489
1.074252489
1.074252489
1.074252489
1.074252489
1.074252489
1.074252489
1.074252489
55295.74009
55295.82713
55296.02902
55296.35772
55296.76938
55296.97613
55296.5365
55294.31706
2.473215232
1.821991713
1.428089674
1.226712598
1.134231497
1.095733104
1.081251605
1.076333079
1.074819425
1.07439486
1.074285613
1.074259664
1.074253942
1.074252765
1.074252538
1.074252497
1.07425249
1.074252489
1.074252489
1.074252489
1.074252489
1.074252489
1.074252489
1.074252489
1.074252489
1.074252489
1.074252489
1.074252489
1.074252489
1.074252489
1.074252489
1.074252489
1.074252489
1.074252489
1.074252489
1.074252489
1.074252489
1.074252489
1.074252489
1.074252489
1.074252489
1.074252489
55295.67213
55295.77134
55295.97212
55296.22416
55296.41183
55296.32788
55295.5998
55294.06272
1.604167188
1.389563409
1.235608971
1.147267179
1.103795304
1.085002105
1.077788631
1.075310395
1.074542132
1.074325504
1.074269531
1.07425619
1.07425324
1.074252632
1.074252515
1.074252493
1.07425249
1.074252489
1.074252489
1.074252489
1.074252489
1.074252489
1.074252489
1.074252489
1.074252489
1.074252489
1.074252489
1.074252489
1.074252489
1.074252489
1.074252489
1.074252489
1.074252489
1.074252489
1.074252489
1.074252489
1.074252489
1.074252489
1.074252489
1.074252489
1.074252489
1.074252489
55295.58195
55295.69252
55295.84927
55295.98159
55295.9887
55295.70734
55294.84405
55294.75941
1.285220816
1.207345749
1.145583725
1.107553495
1.087993773
1.079314882
1.075931734
1.074757941
1.074391541
1.07428768
1.07426073
1.074254284
1.074252854
1.074252559
1.074252501
1.074252491
1.074252489
1.074252489
1.074252489
1.074252489
1.074252489
1.074252489
1.074252489
1.074252489
1.074252489
1.074252489
1.074252489
1.074252489
1.074252489
1.074252489
1.074252489
1.074252489
1.074252489
1.074252489
1.074252489
1.074252489
1.074252489
1.074252489
1.074252489
1.074252489
1.074252489
1.074252489
55295.41415
55295.50855
55295.60503
55295.6363
55295.51838
55295.12013
55294.23777
55293.31183
1.15905124
1.129218309
1.104505577
1.088666198
1.080286134
1.076498025
1.075002976
1.074479716
1.0743153
1.074268449
1.07425624
1.074253308
1.074252656
1.074252521
1.074252495
1.07425249
1.074252489
1.074252489
1.074252489
1.074252489
1.074252489
1.074252489
1.074252489
1.074252489
1.074252489
1.074252489
1.074252489
1.074252489
1.074252489
1.074252489
1.074252489
1.074252489
1.074252489
1.074252489
1.074252489
1.074252489
1.074252489
1.074252489
1.074252489
1.074252489
1.074252489
1.074252489
55295.13433
55295.20589
55295.25161
55295.21259
55295.01604
55294.56302
55293.75964
55292.71325
1.108166093
1.096253225
1.0865113
1.080168053
1.076755276
1.075191892
1.074568602
1.074348739
1.074279221
1.074259309
1.074254097
1.074252841
1.074252561
1.074252503
1.074252491
1.074252489
1.074252489
1.074252489
1.074252489
1.074252489
1.074252489
1.074252489
1.074252489
1.074252489
1.074252489
1.074252489
1.074252489
1.074252489
1.074252489
1.074252489
1.074252489
1.074252489
1.074252489
1.074252489
1.074252489
1.074252489
1.074252489
1.074252489
1.074252489
1.074252489
1.074252489
1.074252489
55294.75987
55294.81037
55294.81989
55294.73806
55294.50354
55294.05862
55293.40676
55292.6653
1.087837945
1.082802512
1.079003824
1.076557979
1.075234917
1.074623765
1.074378184
1.074290962
1.074263223
1.074255238
1.07425314
1.074252632
1.074252518
1.074252494
1.07425249
1.074252489
1.074252489
1.074252489
1.074252489
1.074252489
1.074252489
1.074252489
1.074252489
1.074252489
1.074252489
1.074252489
1.074252489
1.074252489
1.074252489
1.074252489
1.074252489
1.074252489
1.074252489
1.074252489
1.074252489
1.074252489
1.074252489
1.074252489
1.074252489
1.074252489
1.074252489
1.074252489
55294.33475
55294.36653
55294.35131
55294.25002
55294.01886
55293.64242
55293.1586
55292.64153
1.07983509
1.077517908
1.076024873
1.075108974
1.074618419
1.074391423
1.074299758
1.074267026
1.074256562
1.074253536
1.074252738
1.074252544
1.0742525
1.074252491
1.074252489
1.074252489
1.074252489
1.074252489
1.074252489
1.074252489
1.074252489
1.074252489
1.074252489
1.074252489
1.074252489
1.074252489
1.074252489
1.074252489
1.074252489
1.074252489
1.074252489
1.074252489
1.074252489
1.074252489
1.074252489
1.074252489
1.074252489
1.074252489
1.074252489
1.074252489
1.074252489
1.074252489
55293.90772
55293.925
55293.89692
55293.79832
55293.6055
55293.32406
55292.98133
55292.6268
1.076679373
1.07550537
1.074896483
1.074557809
1.074382358
1.074301856
1.074269339
1.07425769
1.074253952
1.074252866
1.074252579
1.074252509
1.074252493
1.07425249
1.074252489
1.074252489
1.074252489
1.074252489
1.074252489
1.074252489
1.074252489
1.074252489
1.074252489
1.074252489
1.074252489
1.074252489
1.074252489
1.074252489
1.074252489
1.074252489
1.074252489
1.074252489
1.074252489
1.074252489
1.074252489
1.074252489
1.074252489
1.074252489
1.074252489
1.074252489
1.074252489
1.074252489
55293.5229
55293.53102
55293.50307
55293.4238
55293.28312
55293.08771
55292.85326
55292.61671
1.075393266
1.074750015
1.074484899
1.074358083
1.074296686
1.074269213
1.074258198
1.074254255
1.074252987
1.074252618
1.07425252
1.074252496
1.07425249
1.074252489
1.074252489
1.074252489
1.074252489
1.074252489
1.074252489
1.074252489
1.074252489
1.074252489
1.074252489
1.074252489
1.074252489
1.074252489
1.074252489
1.074252489
1.074252489
1.074252489
1.074252489
1.074252489
1.074252489
1.074252489
1.074252489
1.074252489
1.074252489
1.074252489
1.074252489
1.074252489
1.074252489
1.074252489
55293.21414
55293.21694
55293.19549
55293.13979
55293.04548
55292.91666
55292.76256
55292.60802
1.074831837
1.07446298
1.074338138
1.074288548
1.07426706
1.074257924
1.074254335
1.07425306
1.07425265
1.074252531
1.074252499
1.074252491
1.074252489
1.074252489
1.074252489
1.074252489
1.074252489
1.074252489
1.074252489
1.074252489
1.074252489
1.074252489
1.074252489
1.074252489
1.074252489
1.074252489
1.074252489
1.074252489
1.074252489
1.074252489
1.074252489
1.074252489
1.074252489
1.074252489
1.074252489
1.074252489
1.074252489
1.074252489
1.074252489
1.074252489
1.074252489
1.074252489
55292.99
55292.99002
55292.97511
55292.93884
55292.8789
55292.79743
55292.69984
55292.60041
1.074563548
1.0743487
1.074285753
1.074264969
1.07425722
1.0742542
1.074253062
1.074252665
1.074252539
1.074252502
1.074252492
1.074252489
1.074252489
1.074252489
1.074252489
1.074252489
1.074252489
1.074252489
1.074252489
1.074252489
1.074252489
1.074252489
1.074252489
1.074252489
1.074252489
1.074252489
1.074252489
1.074252489
1.074252489
1.074252489
1.074252489
1.074252489
1.074252489
1.074252489
1.074252489
1.074252489
1.074252489
1.074252489
1.074252489
1.074252489
1.074252489
1.074252489
55292.8379
55292.83678
55292.82679
55292.80412
55292.76738
55292.71762
55292.65791
55292.59525
1.074424227
1.07429958
1.074266418
1.07425701
1.074254041
1.074253019
1.074252662
1.074252541
1.074252504
1.074252493
1.07425249
1.074252489
1.074252489
1.074252489
1.074252489
1.074252489
1.074252489
1.074252489
1.074252489
1.074252489
1.074252489
1.074252489
1.074252489
1.074252489
1.074252489
1.074252489
1.074252489
1.074252489
1.074252489
1.074252489
1.074252489
1.074252489
1.074252489
1.074252489
1.074252489
1.074252489
1.074252489
1.074252489
1.074252489
1.074252489
1.074252489
1.074252489
55292.73885
55292.73749
55292.731
55292.71725
55292.69543
55292.66604
55292.63076
55292.59461
1.074347576
1.07427653
1.074258772
1.074254249
1.074253019
1.074252655
1.07425254
1.074252504
1.074252493
1.07425249
1.074252489
1.074252489
1.074252489
1.074252489
1.074252489
1.074252489
1.074252489
1.074252489
1.074252489
1.074252489
1.074252489
1.074252489
1.074252489
1.074252489
1.074252489
1.074252489
1.074252489
1.074252489
1.074252489
1.074252489
1.074252489
1.074252489
1.074252489
1.074252489
1.074252489
1.074252489
1.074252489
1.074252489
1.074252489
1.074252489
1.074252489
1.074252489
55292.67544
55292.67431
55292.67029
55292.66232
55292.64993
55292.63338
55292.61353
55292.59416
1.074303764
1.0742648
1.074255446
1.074253223
1.074252682
1.074252543
1.074252504
1.074252493
1.07425249
1.074252489
1.074252489
1.074252489
1.074252489
1.074252489
1.074252489
1.074252489
1.074252489
1.074252489
1.074252489
1.074252489
1.074252489
1.074252489
1.074252489
1.074252489
1.074252489
1.074252489
1.074252489
1.074252489
1.074252489
1.074252489
1.074252489
1.074252489
1.074252489
1.074252489
1.074252489
1.074252489
1.074252489
1.074252489
1.074252489
1.074252489
1.074252489
1.074252489
55292.63402
55292.63331
55292.63113
55292.62702
55292.62074
55292.61241
55292.60245
55292.59365
1.074277532
1.074258318
1.07425382
1.074252794
1.074252561
1.074252507
1.074252493
1.07425249
1.074252489
1.074252489
1.074252489
1.074252489
1.074252489
1.074252489
1.074252489
1.074252489
1.074252489
1.074252489
1.074252489
1.074252489
1.074252489
1.074252489
1.074252489
1.074252489
1.074252489
1.074252489
1.074252489
1.074252489
1.074252489
1.074252489
1.074252489
1.074252489
1.074252489
1.074252489
1.074252489
1.074252489
1.074252489
1.074252489
1.074252489
1.074252489
1.074252489
1.074252489
55292.60432
55292.60408
55292.6034
55292.60214
55292.60022
55292.59768
55292.59466