/*--------------------------------*- C++ -*----------------------------------*\
  =========                 |
  \\      /  F ield         | OpenFOAM: The Open Source CFD Toolbox
   \\    /   O peration     | Website:  https://openfoam.org
    \\  /    A nd           | Version:  6
     \\/     M anipulation  |
\*---------------------------------------------------------------------------*/
FoamFile
{
    version     2.0;
    format      ascii;
    class       volScalarField;
    location    "0.04";
    object      Temperature;
}
// * * * * * * * * * * * * * * * * * * * * * * * * * * * * * * * * * * * * * //

dimensions      [0 0 0 1 0 0 0];

internalField   nonuniform List<scalar> 
2500
(
300.1782368
300.1750607
300.1657755
300.1484524
300.1222673
300.0876686
300.0463616
300.0012891
300.0001752
300.0000402
300.000009
300.000002
300.0000004
300.0000001
300
300
300
300
300
300
300
300
300
300
300
300
300
300
300
300
300
300
300
300
300
300
300
300
300
300
300
300
300
300
300
300
300
300
300
300
300.5843715
300.5745742
300.5448334
300.4884296
300.4025321
300.2886784
300.1526452
300.0042539
300.000586
300.0001365
300.0000312
300.0000071
300.0000017
300.0000004
300.0000001
300
300
300
300
300
300
300
300
300
300
300
300
300
300
300
300
300
300
300
300
300
300
300
300
300
300
300
300
300
300
300
300
300
300
300
301.1524102
301.136844
301.0816347
300.9720125
300.80206
300.5752665
300.3039076
300.0084999
300.0011996
300.0002882
300.0000693
300.0000172
300.0000045
300.0000013
300.0000004
300.0000001
300
300
300
300
300
300
300
300
300
300
300
300
300
300
300
300
300
300
300
300
300
300
300
300
300
300
300
300
300
300
300
300
300
300
302.0259619
302.0072287
301.9173232
301.7273329
301.4265526
301.0226052
300.539288
300.0151729
300.0022238
300.0005625
300.0001471
300.0000412
300.0000124
300.0000039
300.0000012
300.0000004
300.0000001
300
300
300
300
300
300
300
300
300
300
300
300
300
300
300
300
300
300
300
300
300
300
300
300
300
300
300
300
300
300
300
300
300
303.4003943
303.3846222
303.245003
302.9290076
302.4188838
301.7312437
300.9105945
300.0258696
300.0040147
300.0011012
300.0003258
300.0001058
300.0000363
300.0000124
300.000004
300.0000012
300.0000003
300.0000001
300
300
300
300
300
300
300
300
300
300
300
300
300
300
300
300
300
300
300
300
300
300
300
300
300
300
300
300
300
300
300
300
305.5345734
305.5344504
305.3227209
304.8104611
303.9689239
302.8336168
301.485573
300.0429084
300.0072671
300.0022483
300.0007774
300.0002917
300.0001106
300.00004
300.0000134
300.0000041
300.0000012
300.0000003
300.0000001
300
300
300
300
300
300
300
300
300
300
300
300
300
300
300
300
300
300
300
300
300
300
300
300
300
300
300
300
300
300
300
308.7327025
308.7720773
308.460713
307.6586203
306.3123977
304.4943921
302.3490826
300.0698707
300.0135247
300.0049147
300.0019999
300.0008422
300.0003405
300.0001271
300.0000432
300.0000134
300.0000038
300.000001
300.0000002
300.0000001
300
300
300
300
300
300
300
300
300
300
300
300
300
300
300
300
300
300
300
300
300
300
300
300
300
300
300
300
300
300
313.2442816
313.3627307
312.944658
311.7719599
309.7158584
306.90707
303.6056343
300.1130968
300.0266056
300.0116059
300.0054226
300.0024647
300.0010322
300.0003908
300.0001335
300.0000413
300.0000117
300.000003
300.0000007
300.0000002
300
300
300
300
300
300
300
300
300
300
300
300
300
300
300
300
300
300
300
300
300
300
300
300
300
300
300
300
300
300
319.0453291
319.3079711
318.8717066
317.3605214
314.4510608
310.3018003
305.3966951
300.186011
300.0565296
300.0291968
300.0150145
300.0071225
300.0030316
300.0011532
300.0003939
300.0001217
300.0000343
300.0000088
300.0000021
300.0000005
300.0000001
300
300
300
300
300
300
300
300
300
300
300
300
300
300
300
300
300
300
300
300
300
300
300
300
300
300
300
300
300
325.7264622
326.2313527
325.9815913
324.3615658
320.7313595
314.9915474
307.9090229
300.3196343
300.1297871
300.0759927
300.0412847
300.0199676
300.008538
300.0032442
300.0011046
300.00034
300.0000953
300.0000245
300.0000058
300.0000013
300.0000003
300.0000001
300
300
300
300
300
300
300
300
300
300
300
300
300
300
300
300
300
300
300
300
300
300
300
300
300
300
300
300
332.6461684
333.4841613
333.6367682
332.2655536
328.4089557
321.3335849
311.4945395
300.5905297
300.3146876
300.1984767
300.110503
300.0536996
300.0229092
300.008666
300.0029363
300.0008995
300.0002512
300.0000644
300.0000153
300.0000034
300.0000007
300.0000001
300
300
300
300
300
300
300
300
300
300
300
300
300
300
300
300
300
300
300
300
300
300
300
300
300
300
300
300
338.9716848
340.20727
340.9997012
340.3153368
336.9242489
329.3591077
316.7352646
301.1792486
300.7791333
300.507893
300.2841862
300.1375499
300.0583102
300.0219152
300.0073819
300.0022496
300.0006253
300.0001597
300.0000377
300.0000083
300.0000017
300.0000003
300.0000001
300
300
300
300
300
300
300
300
300
300
300
300
300
300
300
300
300
300
300
300
300
300
300
300
300
300
300
343.8430694
345.5240612
347.2624397
347.8321118
345.7033418
338.6925635
324.1161846
302.4840733
301.9109793
301.2528245
300.6963257
300.3339613
300.1403416
300.0523448
300.0175177
300.0053092
300.0014689
300.0003736
300.0000879
300.0000192
300.0000039
300.0000008
300.0000001
300
300
300
300
300
300
300
300
300
300
300
300
300
300
300
300
300
300
300
300
300
300
300
300
300
300
300
346.8253975
348.8292851
351.7179529
354.2029801
354.3466553
349.1201862
333.9806154
305.3619875
304.547873
302.9480799
301.6163806
300.7658458
300.3185924
300.117849
300.0391726
300.0118056
300.0032509
300.0008235
300.000193
300.0000421
300.0000086
300.0000016
300.0000003
300.0000001
300
300
300
300
300
300
300
300
300
300
300
300
300
300
300
300
300
300
300
300
300
300
300
300
300
300
348.4597498
350.2692212
353.9972262
358.8190116
362.502712
360.8646476
347.1533962
311.5609959
310.3617386
306.5720778
303.5399729
301.6540996
300.6806769
300.2496379
300.0824109
300.024698
300.0067696
300.0017081
300.000399
300.0000867
300.0000176
300.0000034
300.0000006
300.0000001
300
300
300
300
300
300
300
300
300
300
300
300
300
300
300
300
300
300
300
300
300
300
300
300
300
300
349.7082805
351.3099727
355.086939
361.4217595
369.6998261
374.015092
365.0017807
324.2979654
322.3775466
313.8059479
307.2895883
303.3564338
301.3659609
300.4966924
300.1628641
300.0485442
300.0132463
300.0033298
300.0007754
300.0001681
300.0000341
300.0000065
300.0000012
300.0000002
300
300
300
300
300
300
300
300
300
300
300
300
300
300
300
300
300
300
300
300
300
300
300
300
300
300
350.9563306
352.549983
356.5307265
363.9649985
375.5387716
388.4307157
389.1507219
348.7293714
345.4400818
327.2051908
314.0713305
306.3841284
302.5699287
300.9267484
300.3019131
300.0895244
300.0243254
300.0060933
300.0014147
300.0003059
300.0000619
300.0000118
300.0000021
300.0000004
300.0000001
300
300
300
300
300
300
300
300
300
300
300
300
300
300
300
300
300
300
300
300
300
300
300
300
300
352.4902736
354.2341754
358.6961972
367.3627413
381.9077668
403.2943343
420.6239689
391.7084333
386.1949703
350.0911083
325.39343
311.3587866
304.5253061
301.6191648
300.5242962
300.1547188
300.0418756
300.0104555
300.0024209
300.0005223
300.0001054
300.00002
300.0000036
300.0000006
300.0000001
300
300
300
300
300
300
300
300
300
300
300
300
300
300
300
300
300
300
300
300
300
300
300
300
300
354.4426216
356.4614662
361.6957601
372.0581194
390.1312257
418.5353056
458.5979194
460.1610654
451.9832685
385.9038309
342.7429629
318.8705769
307.4466897
302.6454618
300.8519054
300.2503007
300.0675065
300.016806
300.0038817
300.0008357
300.0001684
300.0000319
300.0000057
300.000001
300.0000002
300
300
300
300
300
300
300
300
300
300
300
300
300
300
300
300
300
300
300
300
300
300
300
300
300
356.819254
359.2062715
365.4740117
378.1192732
400.8632246
438.7149709
499.6416398
558.0660145
548.2323574
436.8825605
366.9828832
329.228927
311.4370462
304.0374072
301.293832
300.3786872
300.1018164
300.0252828
300.0058271
300.0012522
300.0002519
300.0000476
300.0000085
300.0000014
300.0000002
300
300
300
300
300
300
300
300
300
300
300
300
300
300
300
300
300
300
300
300
300
300
300
300
300
359.4861441
362.2907659
369.7344697
384.9978704
413.2274466
462.3567031
546.4503981
683.0571087
674.6454286
502.2906782
397.587878
342.1597651
316.3776355
305.7503048
301.8351181
300.535363
300.1435632
300.0355722
300.0081838
300.0017559
300.0003528
300.0000666
300.0000119
300.000002
300.0000003
300
300
300
300
300
300
300
300
300
300
300
300
300
300
300
300
300
300
300
300
300
300
300
300
300
362.1982285
365.4336729
374.1132615
392.2117096
426.6402014
489.4506407
602.1461162
823.2422583
821.5761669
576.8905842
432.0343337
356.5770684
321.848534
307.637396
302.4291278
300.7067753
300.189125
300.0467795
300.0107463
300.0023028
300.0004622
300.0000872
300.0000155
300.0000026
300.0000004
300.0000001
300
300
300
300
300
300
300
300
300
300
300
300
300
300
300
300
300
300
300
300
300
300
300
300
364.6505047
368.2881882
378.1378481
398.9767905
439.5138434
516.0845031
658.5148949
961.0260873
969.3195367
650.7429687
465.7700985
370.589864
327.1367417
309.4540351
302.9991856
300.8708772
300.2326592
300.0574711
300.0131878
300.0028234
300.0005662
300.0001067
300.000019
300.0000032
300.0000005
300.0000001
300
300
300
300
300
300
300
300
300
300
300
300
300
300
300
300
300
300
300
300
300
300
300
300
366.5223758
370.4813176
381.2788763
404.3948692
450.1717027
538.8888388
709.5884239
1073.169245
1091.01742
710.8617605
493.0101636
381.8402972
331.3651449
310.9022268
303.4525876
301.001166
300.2671743
300.0659379
300.0151193
300.0032348
300.0006484
300.0001222
300.0000217
300.0000037
300.0000006
300.0000001
300
300
300
300
300
300
300
300
300
300
300
300
300
300
300
300
300
300
300
300
300
300
300
300
367.5396043
371.6813336
383.0250515
407.486077
456.4714285
552.7836693
744.1529371
1137.271378
1160.241921
744.7850082
508.2994436
388.1319963
333.7237598
311.708515
303.704665
301.0735233
300.2863261
300.0706327
300.0161897
300.0034627
300.0006938
300.0001307
300.0000232
300.0000039
300.0000006
300.0000001
300
300
300
300
300
300
300
300
300
300
300
300
300
300
300
300
300
300
300
300
300
300
300
300
367.5396004
371.6813299
383.0250482
407.4860745
456.4714275
552.78367
744.1529356
1137.271372
1160.241914
744.7850047
508.2994421
388.1319957
333.7237596
311.7085149
303.7046649
301.0735233
300.2863261
300.0706327
300.0161897
300.0034627
300.0006938
300.0001307
300.0000232
300.0000039
300.0000006
300.0000001
300
300
300
300
300
300
300
300
300
300
300
300
300
300
300
300
300
300
300
300
300
300
300
300
366.5223642
370.4813063
381.2788662
404.3948618
450.1717001
538.888842
709.5884319
1073.169232
1091.017402
710.8617512
493.0101599
381.8402958
331.3651444
310.9022266
303.4525876
301.001166
300.2671743
300.0659379
300.0151193
300.0032348
300.0006484
300.0001222
300.0000217
300.0000037
300.0000006
300.0000001
300
300
300
300
300
300
300
300
300
300
300
300
300
300
300
300
300
300
300
300
300
300
300
300
364.6504851
368.2881692
378.137831
398.9767775
439.5138387
516.0845118
658.5149193
961.0260757
969.319518
650.7429594
465.7700948
370.5898627
327.1367412
309.454035
302.9991855
300.8708772
300.2326592
300.0574711
300.0131878
300.0028234
300.0005662
300.0001067
300.000019
300.0000032
300.0000005
300.0000001
300
300
300
300
300
300
300
300
300
300
300
300
300
300
300
300
300
300
300
300
300
300
300
300
362.1982011
365.4336461
374.1132367
392.2116895
426.640191
489.4506481
602.1461437
823.2422588
821.5761606
576.8905814
432.0343328
356.5770681
321.8485339
307.637396
302.4291278
300.7067753
300.189125
300.0467795
300.0107463
300.0023028
300.0004622
300.0000872
300.0000155
300.0000026
300.0000004
300.0000001
300
300
300
300
300
300
300
300
300
300
300
300
300
300
300
300
300
300
300
300
300
300
300
300
359.4861089
362.2907313
369.7344366
384.9978411
413.2274254
462.356697
546.4504088
683.0571308
674.6454413
502.2906845
397.5878805
342.159766
316.3776358
305.7503049
301.8351181
300.535363
300.1435632
300.0355722
300.0081838
300.0017559
300.0003528
300.0000666
300.0000119
300.000002
300.0000003
300
300
300
300
300
300
300
300
300
300
300
300
300
300
300
300
300
300
300
300
300
300
300
300
300
356.8192117
359.2062296
365.4739705
378.1192339
400.8631887
438.7149384
499.6416002
558.0660577
548.2323817
436.8825716
366.9828876
329.2289286
311.4370467
304.0374074
301.2938321
300.3786872
300.1018164
300.0252828
300.0058271
300.0012522
300.0002519
300.0000476
300.0000085
300.0000014
300.0000002
300
300
300
300
300
300
300
300
300
300
300
300
300
300
300
300
300
300
300
300
300
300
300
300
300
354.4425736
356.4614183
361.6957127
372.0580723
390.1311783
418.5352568
458.5978717
460.1610974
451.9832867
385.9038397
342.7429666
318.8705783
307.4466901
302.6454619
300.8519054
300.2503007
300.0675065
300.016806
300.0038817
300.0008357
300.0001684
300.0000319
300.0000057
300.000001
300.0000002
300
300
300
300
300
300
300
300
300
300
300
300
300
300
300
300
300
300
300
300
300
300
300
300
300
352.4902215
354.2341235
358.6961456
367.3626898
381.9077141
403.2942774
420.6239254
391.7084432
386.1949787
350.091113
325.3934321
311.3587875
304.5253064
301.6191649
300.5242962
300.1547189
300.0418756
300.0104555
300.0024209
300.0005223
300.0001054
300.00002
300.0000036
300.0000006
300.0000001
300
300
300
300
300
300
300
300
300
300
300
300
300
300
300
300
300
300
300
300
300
300
300
300
300
350.9562764
352.5499293
356.5306736
363.9649465
375.5387192
388.430666
389.1506857
348.7293747
345.4400848
327.2051928
314.0713315
306.3841288
302.5699288
300.9267485
300.3019131
300.0895244
300.0243254
300.0060933
300.0014147
300.0003059
300.0000619
300.0000118
300.0000021
300.0000004
300.0000001
300
300
300
300
300
300
300
300
300
300
300
300
300
300
300
300
300
300
300
300
300
300
300
300
300
349.7082261
351.3099192
355.0868873
361.4217098
369.6997778
374.0150478
365.0017512
324.297966
322.3775473
313.8059485
307.2895886
303.356434
301.365961
300.4966924
300.1628641
300.0485442
300.0132463
300.0033298
300.0007754
300.0001681
300.0000341
300.0000065
300.0000012
300.0000002
300
300
300
300
300
300
300
300
300
300
300
300
300
300
300
300
300
300
300
300
300
300
300
300
300
300
348.4596966
350.2691695
353.9971772
358.8189636
362.5026663
360.8646079
347.1533723
311.5609954
310.3617386
306.5720779
303.5399729
301.6540996
300.6806769
300.2496379
300.0824109
300.024698
300.0067696
300.0017081
300.000399
300.0000867
300.0000176
300.0000034
300.0000006
300.0000001
300
300
300
300
300
300
300
300
300
300
300
300
300
300
300
300
300
300
300
300
300
300
300
300
300
300
346.8253461
348.8292348
351.717904
354.2029329
354.3466116
349.1201497
333.9805936
305.3619865
304.5478727
302.9480798
301.6163805
300.7658458
300.3185924
300.117849
300.0391726
300.0118056
300.0032509
300.0008235
300.000193
300.0000421
300.0000086
300.0000016
300.0000003
300.0000001
300
300
300
300
300
300
300
300
300
300
300
300
300
300
300
300
300
300
300
300
300
300
300
300
300
300
343.843018
345.5240107
347.2623906
347.8320653
345.7033001
338.6925305
324.1161666
302.4840724
301.9109791
301.2528245
300.6963256
300.3339613
300.1403416
300.0523448
300.0175177
300.0053092
300.0014689
300.0003736
300.0000879
300.0000192
300.0000039
300.0000008
300.0000001
300
300
300
300
300
300
300
300
300
300
300
300
300
300
300
300
300
300
300
300
300
300
300
300
300
300
300
338.9716331
340.2072191
340.9996521
340.3152909
336.9242084
329.3590759
316.7352459
301.179248
300.7791332
300.5078929
300.2841862
300.1375499
300.0583102
300.0219152
300.0073819
300.0022496
300.0006253
300.0001597
300.0000377
300.0000083
300.0000017
300.0000003
300.0000001
300
300
300
300
300
300
300
300
300
300
300
300
300
300
300
300
300
300
300
300
300
300
300
300
300
300
300
332.6461181
333.4841115
333.6367203
332.2655092
328.4089172
321.3335556
311.4945233
300.5905293
300.3146875
300.1984766
300.110503
300.0536996
300.0229092
300.008666
300.0029363
300.0008995
300.0002512
300.0000644
300.0000153
300.0000034
300.0000007
300.0000001
300
300
300
300
300
300
300
300
300
300
300
300
300
300
300
300
300
300
300
300
300
300
300
300
300
300
300
300
325.7264166
326.2313073
325.9815475
324.3615258
320.731326
314.9915236
307.9090103
300.3196339
300.129787
300.0759926
300.0412847
300.0199676
300.008538
300.0032442
300.0011046
300.00034
300.0000953
300.0000245
300.0000058
300.0000013
300.0000003
300.0000001
300
300
300
300
300
300
300
300
300
300
300
300
300
300
300
300
300
300
300
300
300
300
300
300
300
300
300
300
319.0452914
319.3079333
318.8716703
317.3604887
314.4510345
310.3017822
305.3966859
300.1860108
300.0565296
300.0291968
300.0150145
300.0071225
300.0030316
300.0011532
300.0003939
300.0001217
300.0000343
300.0000088
300.0000021
300.0000005
300.0000001
300
300
300
300
300
300
300
300
300
300
300
300
300
300
300
300
300
300
300
300
300
300
300
300
300
300
300
300
300
313.2442533
313.3627022
312.9446309
311.7719358
309.7158393
306.907057
303.6056277
300.1130966
300.0266056
300.0116059
300.0054226
300.0024647
300.0010322
300.0003908
300.0001335
300.0000413
300.0000117
300.000003
300.0000007
300.0000002
300
300
300
300
300
300
300
300
300
300
300
300
300
300
300
300
300
300
300
300
300
300
300
300
300
300
300
300
300
300
308.7326831
308.7720578
308.4606944
307.6586038
306.3123846
304.4943832
302.3490781
300.0698705
300.0135247
300.0049147
300.0019999
300.0008422
300.0003405
300.0001271
300.0000432
300.0000134
300.0000038
300.000001
300.0000002
300.0000001
300
300
300
300
300
300
300
300
300
300
300
300
300
300
300
300
300
300
300
300
300
300
300
300
300
300
300
300
300
300
305.5345611
305.534438
305.322709
304.8104505
303.9689153
302.8336109
301.48557
300.0429083
300.0072671
300.0022483
300.0007774
300.0002917
300.0001106
300.00004
300.0000134
300.0000041
300.0000012
300.0000003
300.0000001
300
300
300
300
300
300
300
300
300
300
300
300
300
300
300
300
300
300
300
300
300
300
300
300
300
300
300
300
300
300
300
303.4003868
303.3846147
303.2449958
302.9290011
302.4188785
301.73124
300.9105926
300.0258696
300.0040147
300.0011012
300.0003258
300.0001058
300.0000363
300.0000124
300.000004
300.0000012
300.0000003
300.0000001
300
300
300
300
300
300
300
300
300
300
300
300
300
300
300
300
300
300
300
300
300
300
300
300
300
300
300
300
300
300
300
300
302.0259576
302.0072244
301.9173191
301.7273292
301.4265495
301.0226031
300.5392869
300.0151728
300.0022238
300.0005625
300.0001471
300.0000412
300.0000124
300.0000039
300.0000012
300.0000004
300.0000001
300
300
300
300
300
300
300
300
300
300
300
300
300
300
300
300
300
300
300
300
300
300
300
300
300
300
300
300
300
300
300
300
300
301.1524078
301.1368416
301.0816324
300.9720105
300.8020583
300.5752652
300.303907
300.0084999
300.0011996
300.0002882
300.0000693
300.0000172
300.0000045
300.0000013
300.0000004
300.0000001
300
300
300
300
300
300
300
300
300
300
300
300
300
300
300
300
300
300
300
300
300
300
300
300
300
300
300
300
300
300
300
300
300
300
300.5843703
300.574573
300.5448323
300.4884286
300.4025313
300.2886778
300.1526449
300.0042539
300.000586
300.0001365
300.0000312
300.0000071
300.0000017
300.0000004
300.0000001
300
300
300
300
300
300
300
300
300
300
300
300
300
300
300
300
300
300
300
300
300
300
300
300
300
300
300
300
300
300
300
300
300
300
300
300.1782364
300.1750603
300.1657752
300.1484521
300.122267
300.0876684
300.0463615
300.0012891
300.0001752
300.0000402
300.000009
300.000002
300.0000004
300.0000001
300
300
300
300
300
300
300
300
300
300
300
300
300
300
300
300
300
300
300
300
300
300
300
300
300
300
300
300
300
300
300
300
300
300
300
300
)
;

boundaryField
{
    lowerWall
    {
        type            fixedValue;
        value           uniform 300;
    }
    atmosphere
    {
        type            zeroGradient;
    }
    rightWall
    {
        type            empty;
    }
    leftWall
    {
        type            empty;
    }
    frontAndBack
    {
        type            fixedValue;
        value           uniform 300;
    }
}


// ************************************************************************* //
