/*--------------------------------*- C++ -*----------------------------------*\
  =========                 |
  \\      /  F ield         | OpenFOAM: The Open Source CFD Toolbox
   \\    /   O peration     | Website:  https://openfoam.org
    \\  /    A nd           | Version:  6
     \\/     M anipulation  |
\*---------------------------------------------------------------------------*/
FoamFile
{
    version     2.0;
    format      ascii;
    class       volVectorField;
    location    "0.04";
    object      U;
}
// * * * * * * * * * * * * * * * * * * * * * * * * * * * * * * * * * * * * * //

dimensions      [0 1 -1 0 0 0 0];

internalField   nonuniform List<vector> 
2500
(
(0 -0.1231246897 -0.003295223448)
(0 -0.1101022391 -0.006480273174)
(0 -0.09510712602 -0.008619076171)
(0 -0.0756481169 -0.01006333793)
(0 -0.05438009546 -0.01091513466)
(0 -0.03273499706 -0.01116072588)
(0 -0.004284576253 -0.009822742958)
(0 0.0001181184351 -0.0004247155455)
(0 -1.198783694e-14 -2.770370498e-18)
(0 -2.384455112e-14 -1.019211006e-16)
(0 -2.351363501e-14 -1.986700026e-16)
(0 -2.3026214e-14 -2.887780663e-16)
(0 -2.236797209e-14 -3.694372313e-16)
(0 -2.15599467e-14 -4.385769082e-16)
(0 -2.062648034e-14 -4.949004541e-16)
(0 -1.959374776e-14 -5.378722821e-16)
(0 -1.848830597e-14 -5.676447796e-16)
(0 -1.733583621e-14 -5.849400213e-16)
(0 -1.616014668e-14 -5.909074474e-16)
(0 -1.49824644e-14 -5.869773681e-16)
(0 -1.382100894e-14 -5.747256021e-16)
(0 -1.269081615e-14 -5.557590169e-16)
(0 -1.160376523e-14 -5.316265743e-16)
(0 -1.056875776e-14 -5.037563888e-16)
(0 -9.591998822e-15 -4.734165166e-16)
(0 -8.677336607e-15 -4.416956296e-16)
(0 -7.826625205e-15 -4.094991376e-16)
(0 -7.040083993e-15 -3.775564178e-16)
(0 -6.316635262e-15 -3.464353119e-16)
(0 -5.65420869e-15 -3.165607525e-16)
(0 -5.050006824e-15 -2.882351121e-16)
(0 -4.500729843e-15 -2.616585563e-16)
(0 -4.002760744e-15 -2.369482605e-16)
(0 -3.552313899e-15 -2.141558118e-16)
(0 -3.145550955e-15 -1.932824662e-16)
(0 -2.778668457e-15 -1.742921737e-16)
(0 -2.447961562e-15 -1.571224473e-16)
(0 -2.149868018e-15 -1.416932514e-16)
(0 -1.880996106e-15 -1.27914135e-16)
(0 -1.63813984e-15 -1.156898536e-16)
(0 -1.418284187e-15 -1.049247234e-16)
(0 -1.218602628e-15 -9.552593369e-17)
(0 -1.036448929e-15 -8.740602416e-17)
(0 -8.693446042e-16 -8.048471265e-17)
(0 -7.149632034e-16 -7.469025242e-17)
(0 -5.711121439e-16 -6.99605293e-17)
(0 -4.357122282e-16 -6.624428638e-17)
(0 -3.067735107e-16 -6.350357698e-17)
(0 -1.823611719e-16 -6.172140661e-17)
(0 -6.052344377e-17 -6.09314466e-17)
(0 -0.130047686 -0.01034909544)
(0 -0.1153145152 -0.02014364329)
(0 -0.09892418291 -0.02658811595)
(0 -0.07808321421 -0.03084216535)
(0 -0.05570005328 -0.03329273454)
(0 -0.03322618053 -0.03387815715)
(0 -0.004119688497 -0.02962247229)
(0 0.0001183642283 -0.001146633144)
(0 -1.208721872e-14 -6.75163588e-18)
(0 -2.404163989e-14 -3.088812504e-16)
(0 -2.370049198e-14 -6.026927173e-16)
(0 -2.319698123e-14 -8.758364081e-16)
(0 -2.251777093e-14 -1.119896567e-15)
(0 -2.168540992e-14 -1.32862451e-15)
(0 -2.072577571e-14 -1.498143195e-15)
(0 -1.966649208e-14 -1.626918827e-15)
(0 -1.853537371e-14 -1.715526724e-15)
(0 -1.735909888e-14 -1.766275314e-15)
(0 -1.616218403e-14 -1.782759319e-15)
(0 -1.496628255e-14 -1.769404965e-15)
(0 -1.378979059e-14 -1.731054128e-15)
(0 -1.264771712e-14 -1.672616346e-15)
(0 -1.15517626e-14 -1.598801442e-15)
(0 -1.05105477e-14 -1.513932976e-15)
(0 -9.529938063e-15 -1.421834449e-15)
(0 -8.613419228e-15 -1.325775763e-15)
(0 -7.762485993e-15 -1.228465926e-15)
(0 -6.977020167e-15 -1.132078575e-15)
(0 -6.255639597e-15 -1.038298611e-15)
(0 -5.59600849e-15 -9.483804795e-16)
(0 -4.995104628e-15 -8.632109428e-16)
(0 -4.449442992e-15 -7.833712755e-16)
(0 -3.955258e-15 -7.091955947e-16)
(0 -3.508648104e-15 -6.408233988e-16)
(0 -3.105687317e-15 -5.782454238e-16)
(0 -2.742508438e-15 -5.213426433e-16)
(0 -2.41536264e-15 -4.699187019e-16)
(0 -2.120659706e-15 -4.237263542e-16)
(0 -1.854992709e-15 -3.82488619e-16)
(0 -1.615150428e-15 -3.459154044e-16)
(0 -1.398120267e-15 -3.137163425e-16)
(0 -1.201083929e-15 -2.856105206e-16)
(0 -1.021407708e-15 -2.613337267e-16)
(0 -8.566288324e-16 -2.406437549e-16)
(0 -7.044390201e-16 -2.233242653e-16)
(0 -5.626661778e-16 -2.09187686e-16)
(0 -4.292552759e-16 -1.980777767e-16)
(0 -3.022506309e-16 -1.898729827e-16)
(0 -1.797890415e-16 -1.844933106e-16)
(0 -5.973348376e-17 -1.819189716e-16)
(0 -0.1438534767 -0.01890015015)
(0 -0.1252867252 -0.03596853111)
(0 -0.1060551989 -0.04668063304)
(0 -0.08242112395 -0.05343508256)
(0 -0.05790211079 -0.05707553724)
(0 -0.03400286675 -0.05753391628)
(0 -0.004095411308 -0.04970127724)
(0 0.0001165641505 -0.00186929955)
(0 -1.229216683e-14 -9.79546891e-18)
(0 -2.444367019e-14 -5.263397386e-16)
(0 -2.408059017e-14 -1.027411577e-15)
(0 -2.354341785e-14 -1.492010515e-15)
(0 -2.282076019e-14 -1.905727807e-15)
(0 -2.193819333e-14 -2.257929752e-15)
(0 -2.092477466e-14 -2.542187045e-15)
(0 -1.981113129e-14 -2.756201441e-15)
(0 -1.862766246e-14 -2.901346814e-15)
(0 -1.740306881e-14 -2.981964434e-15)
(0 -1.616327633e-14 -3.004548844e-15)
(0 -1.493075921e-14 -2.97693789e-15)
(0 -1.372422032e-14 -2.907587413e-15)
(0 -1.255856346e-14 -2.804976987e-15)
(0 -1.144508186e-14 -2.677163878e-15)
(0 -1.039179077e-14 -2.53148093e-15)
(0 -9.40384161e-15 -2.374360698e-15)
(0 -8.483968084e-15 -2.211261664e-15)
(0 -7.632928017e-15 -2.046670959e-15)
(0 -6.849916678e-15 -1.884159885e-15)
(0 -6.132937167e-15 -1.726472149e-15)
(0 -5.479121022e-15 -1.575628961e-15)
(0 -4.88499762e-15 -1.433039281e-15)
(0 -4.346714495e-15 -1.299607168e-15)
(0 -3.860212868e-15 -1.175831143e-15)
(0 -3.421363728e-15 -1.061892753e-15)
(0 -3.0260702e-15 -9.577332102e-16)
(0 -2.670341735e-15 -8.6311807e-16)
(0 -2.350345273e-15 -7.77690663e-16)
(0 -2.062437936e-15 -7.010153729e-16)
(0 -1.803185157e-15 -6.326120569e-16)
(0 -1.569367563e-15 -5.71982935e-16)
(0 -1.357979303e-15 -5.186332184e-16)
(0 -1.166220012e-15 -4.720866431e-16)
(0 -9.914821633e-16 -4.318969356e-16)
(0 -8.313351428e-16 -3.976561033e-16)
(0 -6.835071345e-16 -3.690003069e-16)
(0 -5.458656552e-16 -3.456139469e-16)
(0 -4.163975249e-16 -3.272324311e-16)
(0 -2.931890446e-16 -3.136436784e-16)
(0 -1.744071608e-16 -3.046867418e-16)
(0 -5.794910472e-17 -3.002383415e-16)
(0 -0.1657253786 -0.03034104293)
(0 -0.1403734961 -0.05577995718)
(0 -0.1164514108 -0.07052207363)
(0 -0.08830961716 -0.07909171014)
(0 -0.06053875793 -0.08306017731)
(0 -0.03461755508 -0.08250326009)
(0 -0.00395080438 -0.07001129398)
(0 0.0001113534886 -0.00260044332)
(0 -1.260891292e-14 -1.39391983e-17)
(0 -2.506444199e-14 -7.631333376e-16)
(0 -2.466616276e-14 -1.488583115e-15)
(0 -2.407529746e-14 -2.15903223e-15)
(0 -2.328369017e-14 -2.753034063e-15)
(0 -2.232186916e-14 -3.255135694e-15)
(0 -2.12240474e-14 -3.656428208e-15)
(0 -2.002565185e-14 -3.954307136e-15)
(0 -1.876113671e-14 -4.151648961e-15)
(0 -1.746230091e-14 -4.255641349e-15)
(0 -1.615715749e-14 -4.276488245e-15)
(0 -1.486932112e-14 -4.226164194e-15)
(0 -1.361782968e-14 -4.117333181e-15)
(0 -1.241729358e-14 -3.962490884e-15)
(0 -1.127826654e-14 -3.773344222e-15)
(0 -1.020774452e-14 -3.560411313e-15)
(0 -9.209718797e-15 -3.332807681e-15)
(0 -8.285729489e-15 -3.098177793e-15)
(0 -7.435384214e-15 -2.862731482e-15)
(0 -6.656821358e-15 -2.631349565e-15)
(0 -5.947108673e-15 -2.407729524e-15)
(0 -5.302575621e-15 -2.194549122e-15)
(0 -4.719082835e-15 -1.993632199e-15)
(0 -4.192234854e-15 -1.806106258e-15)
(0 -3.717543585e-15 -1.63254566e-15)
(0 -3.290550171e-15 -1.47309737e-15)
(0 -2.906912634e-15 -1.327588393e-15)
(0 -2.562465891e-15 -1.195615434e-15)
(0 -2.253259943e-15 -1.076618227e-15)
(0 -1.9755811e-15 -9.699383568e-16)
(0 -1.725960271e-15 -8.74865627e-16)
(0 -1.50117159e-15 -7.906739351e-16)
(0 -1.298223975e-15 -7.16648535e-16)
(0 -1.114347646e-15 -6.521063413e-16)
(0 -9.469771681e-16 -5.964107253e-16)
(0 -7.937322037e-16 -5.489820318e-16)
(0 -6.523968637e-16 -5.093048335e-16)
(0 -5.20898302e-16 -4.769327326e-16)
(0 -3.972850074e-16 -4.514912839e-16)
(0 -2.797049416e-16 -4.326792887e-16)
(0 -1.663837046e-16 -4.202682532e-16)
(0 -5.528508349e-17 -4.141000099e-16)
(0 -0.1972281319 -0.04671313155)
(0 -0.1607473529 -0.08205827761)
(0 -0.1297706425 -0.1001779697)
(0 -0.09498478221 -0.1092716526)
(0 -0.06277713011 -0.1120267407)
(0 -0.03440519127 -0.1089597018)
(0 -0.003622816286 -0.09019159531)
(0 9.929597757e-05 -0.003320763087)
(0 -1.304858652e-14 -1.948590989e-17)
(0 -2.592555726e-14 -1.029018899e-15)
(0 -2.547648906e-14 -2.004738808e-15)
(0 -2.48078688e-14 -2.902469984e-15)
(0 -2.391686365e-14 -3.69220612e-15)
(0 -2.284158747e-14 -4.353117177e-15)
(0 -2.16239461e-14 -4.874053128e-15)
(0 -2.030635204e-14 -5.252925588e-15)
(0 -1.892899668e-14 -5.495282315e-15)
(0 -1.752790809e-14 -5.612451401e-15)
(0 -1.613379918e-14 -5.619591297e-15)
(0 -1.477160414e-14 -5.533894119e-15)
(0 -1.346054701e-14 -5.373089665e-15)
(0 -1.22145745e-14 -5.154310261e-15)
(0 -1.104300229e-14 -4.893312686e-15)
(0 -9.951254226e-15 -4.604014332e-15)
(0 -8.94160809e-15 -4.298282364e-15)
(0 -8.013891885e-15 -3.985910974e-15)
(0 -7.166099789e-15 -3.674727239e-15)
(0 -6.39491472e-15 -3.370775917e-15)
(0 -5.696136723e-15 -3.078544725e-15)
(0 -5.065023696e-15 -2.801202236e-15)
(0 -4.496554756e-15 -2.540829618e-15)
(0 -3.985627956e-15 -2.298634638e-15)
(0 -3.52720398e-15 -2.075141751e-15)
(0 -3.116406461e-15 -1.870355912e-15)
(0 -2.748588264e-15 -1.683900238e-15)
(0 -2.419371568e-15 -1.515129258e-15)
(0 -2.124668196e-15 -1.363220266e-15)
(0 -1.860685336e-15 -1.227245682e-15)
(0 -1.623920735e-15 -1.106229363e-15)
(0 -1.411150471e-15 -9.991896175e-16)
(0 -1.219411709e-15 -9.05171429e-16)
(0 -1.045982203e-15 -8.232700885e-16)
(0 -8.883578539e-16 -7.526480906e-16)
(0 -7.44229251e-16 -6.925468583e-16)
(0 -6.114578353e-16 -6.422945711e-16)
(0 -4.880521056e-16 -6.013111069e-16)
(0 -3.721440811e-16 -5.69110874e-16)
(0 -2.61966014e-16 -5.453040969e-16)
(0 -1.558278819e-16 -5.2959706e-16)
(0 -5.178086132e-17 -5.217922978e-16)
(0 -0.2405107208 -0.07111016285)
(0 -0.1856759913 -0.1182317025)
(0 -0.1439807125 -0.1384983004)
(0 -0.09967131379 -0.145982035)
(0 -0.06232647206 -0.1448936907)
(0 -0.03202883716 -0.1368412576)
(0 -0.003066755848 -0.109408614)
(0 7.605197521e-05 -0.004019964321)
(0 -1.362777472e-14 -2.361000524e-17)
(0 -2.705901237e-14 -1.335501821e-15)
(0 -2.653961384e-14 -2.598856626e-15)
(0 -2.576276477e-14 -3.753856945e-15)
(0 -2.473433736e-14 -4.760154851e-15)
(0 -2.350371617e-14 -5.591028415e-15)
(0 -2.212385581e-14 -6.233703271e-15)
(0 -2.064688104e-14 -6.688030736e-15)
(0 -1.912066252e-14 -6.96408398e-15)
(0 -1.758660989e-14 -7.079280257e-15)
(0 -1.60786002e-14 -7.055528485e-15)
(0 -1.462281949e-14 -6.916734026e-15)
(0 -1.323824583e-14 -6.686827669e-15)
(0 -1.19375166e-14 -6.388356677e-15)
(0 -1.072797061e-14 -6.04159183e-15)
(0 -9.6127142e-15 -5.664060961e-15)
(0 -8.591615439e-15 -5.270405914e-15)
(0 -7.662174364e-15 -4.872465004e-15)
(0 -6.820249157e-15 -4.479497943e-15)
(0 -6.060638844e-15 -4.098488292e-15)
(0 -5.377534992e-15 -3.734476198e-15)
(0 -4.764860514e-15 -3.390889368e-15)
(0 -4.216515236e-15 -3.069852321e-15)
(0 -3.726546988e-15 -2.772463009e-15)
(0 -3.289264859e-15 -2.499032178e-15)
(0 -2.899308658e-15 -2.249285087e-15)
(0 -2.55168598e-15 -2.022527716e-15)
(0 -2.241785918e-15 -1.817781047e-15)
(0 -1.965376367e-15 -1.633887552e-15)
(0 -1.718590198e-15 -1.46959417e-15)
(0 -1.497904206e-15 -1.323615782e-15)
(0 -1.300113655e-15 -1.194682867e-15)
(0 -1.122304446e-15 -1.081576503e-15)
(0 -9.618243079e-16 -9.831534509e-16)
(0 -8.16253938e-16 -8.983635971e-16)
(0 -6.833786842e-16 -8.262616103e-16)
(0 -5.611611123e-16 -7.660143292e-16)
(0 -4.477146049e-16 -7.169050736e-16)
(0 -3.412779974e-16 -6.78335816e-16)
(0 -2.401911276e-16 -6.498279574e-16)
(0 -1.428719055e-16 -6.310223598e-16)
(0 -4.748032127e-17 -6.216793474e-16)
(0 -0.2963215868 -0.1087507796)
(0 -0.2075766335 -0.1701222703)
(0 -0.1496390332 -0.1890000294)
(0 -0.09223942301 -0.1901884501)
(0 -0.05169000868 -0.1803385833)
(0 -0.02377043589 -0.1640539561)
(0 -0.002076301321 -0.125735782)
(0 3.623801689e-05 -0.004667436878)
(0 -1.437202609e-14 -2.541281591e-17)
(0 -2.851222868e-14 -1.698697592e-15)
(0 -2.789484419e-14 -3.301287832e-15)
(0 -2.696916702e-14 -4.753878415e-15)
(0 -2.575403512e-14 -6.003458377e-15)
(0 -2.431513589e-14 -7.017075405e-15)
(0 -2.272094842e-14 -7.781649844e-15)
(0 -2.103673275e-14 -8.301373505e-15)
(0 -1.93202462e-14 -8.593720251e-15)
(0 -1.761935259e-14 -8.685047263e-15)
(0 -1.597125295e-14 -8.606508306e-15)
(0 -1.440290333e-14 -8.390692819e-15)
(0 -1.293216966e-14 -8.069141766e-15)
(0 -1.156933866e-14 -7.670710743e-15)
(0 -1.031870657e-14 -7.220651511e-15)
(0 -9.180068311e-15 -6.740245882e-15)
(0 -8.150012132e-15 -6.246828322e-15)
(0 -7.222983913e-15 -5.754056675e-15)
(0 -6.392123077e-15 -5.272321069e-15)
(0 -5.649892976e-15 -4.809211292e-15)
(0 -4.988537799e-15 -4.369989052e-15)
(0 -4.400399819e-15 -3.95803198e-15)
(0 -3.878128397e-15 -3.575231361e-15)
(0 -3.414807814e-15 -3.222335964e-15)
(0 -3.004026058e-15 -2.899241103e-15)
(0 -2.639901999e-15 -2.605226108e-15)
(0 -2.317084224e-15 -2.33914553e-15)
(0 -2.030731405e-15 -2.099580284e-15)
(0 -1.776481318e-15 -1.884955034e-15)
(0 -1.550413565e-15 -1.69362773e-15)
(0 -1.349009432e-15 -1.523956618e-15)
(0 -1.169111192e-15 -1.37434933e-15)
(0 -1.007882293e-15 -1.243297939e-15)
(0 -8.627692972e-16 -1.129403229e-15)
(0 -7.314660133e-16 -1.03139081e-15)
(0 -6.118799831e-16 -9.481212033e-16)
(0 -5.021012986e-16 -8.785955918e-16)
(0 -4.003735923e-16 -8.219585611e-16)
(0 -3.050669648e-16 -7.774988693e-16)
(0 -2.146525578e-16 -7.446490594e-16)
(0 -1.276792719e-16 -7.229845689e-16)
(0 -4.243784889e-17 -7.122228706e-16)
(0 -0.3622276365 -0.1710096188)
(0 -0.2231378819 -0.2516058906)
(0 -0.1453009652 -0.2572508266)
(0 -0.06828363964 -0.2413065065)
(0 -0.02381783735 -0.2112041052)
(0 -0.005107549258 -0.1824956385)
(0 -0.0006056115659 -0.1342052434)
(0 -1.903877601e-05 -0.005176546241)
(0 -1.53145012e-14 -2.666533812e-17)
(0 -3.034846961e-14 -2.141959691e-15)
(0 -2.959479466e-14 -4.153655564e-15)
(0 -2.846493532e-14 -5.956810541e-15)
(0 -2.699753435e-14 -7.482625733e-15)
(0 -2.528190764e-14 -8.692078853e-15)
(0 -2.340815391e-14 -9.574380967e-15)
(0 -2.145895144e-14 -1.014204891e-14)
(0 -1.950433628e-14 -1.042435239e-14)
(0 -1.759939795e-14 -1.046067315e-14)
(0 -1.578424576e-14 -1.029476998e-14)
(0 -1.408545295e-14 -9.970400689e-15)
(0 -1.251826375e-14 -9.52835394e-15)
(0 -1.108902635e-14 -9.004712969e-15)
(0 -9.797505752e-15 -8.430077438e-15)
(0 -8.638891011e-15 -7.829461242e-15)
(0 -7.605426232e-15 -7.22262129e-15)
(0 -6.687667111e-15 -6.624626456e-15)
(0 -5.875403774e-15 -6.046530163e-15)
(0 -5.158306827e-15 -5.496056343e-15)
(0 -4.526355679e-15 -4.978244343e-15)
(0 -3.970102823e-15 -4.496024031e-15)
(0 -3.480819221e-15 -4.050709631e-15)
(0 -3.05055673e-15 -3.642411654e-15)
(0 -2.672155003e-15 -3.270372482e-15)
(0 -2.339213084e-15 -2.933234281e-15)
(0 -2.046040156e-15 -2.629248994e-15)
(0 -1.787595422e-15 -2.356440062e-15)
(0 -1.559423812e-15 -2.112724773e-15)
(0 -1.357591783e-15 -1.896005056e-15)
(0 -1.178625807e-15 -1.704233416e-15)
(0 -1.019454976e-15 -1.535459559e-15)
(0 -8.773583447e-16 -1.387862275e-15)
(0 -7.499171788e-16 -1.259770245e-15)
(0 -6.34971912e-16 -1.149674707e-15)
(0 -5.305834659e-16 -1.05623628e-15)
(0 -4.3499847e-16 -9.782877441e-16)
(0 -3.466178825e-16 -9.148341768e-16)
(0 -2.639684957e-16 -8.65051507e-16)
(0 -1.856768271e-16 -8.282843075e-16)
(0 -1.104457166e-16 -8.040434502e-16)
(0 -3.671862295e-17 -7.920040788e-16)
(0 -0.4721620354 -0.2641424368)
(0 -0.3160783858 -0.3660653119)
(0 -0.2087978923 -0.3530723716)
(0 -0.08954690737 -0.3135110737)
(0 -0.006278521701 -0.243124614)
(0 0.01776707889 -0.1871625521)
(0 -0.001062388276 -0.1286412042)
(0 -7.846210821e-05 -0.005863310032)
(0 -1.64998744e-14 -2.913452055e-17)
(0 -3.265504188e-14 -2.698517751e-15)
(0 -3.170969504e-14 -5.214460582e-15)
(0 -3.029813719e-14 -7.436934032e-15)
(0 -2.848930344e-14 -9.278014346e-15)
(0 -2.640689113e-14 -1.069411705e-14)
(0 -2.417091848e-14 -1.168166269e-14)
(0 -2.188670417e-14 -1.226803837e-14)
(0 -1.963887043e-14 -1.250094543e-14)
(0 -1.748977019e-14 -1.243852303e-14)
(0 -1.548098049e-14 -1.214151268e-14)
(0 -1.363648729e-14 -1.16678096e-14)
(0 -1.196648194e-14 -1.106918782e-14)
(0 -1.047106216e-14 -1.038973777e-14)
(0 -9.143454843e-15 -9.665510413e-15)
(0 -7.972612162e-15 -8.924923912e-15)
(0 -6.945177346e-15 -8.189589345e-15)
(0 -6.046892786e-15 -7.475314484e-15)
(0 -5.263552964e-15 -6.793130358e-15)
(0 -4.581607156e-15 -6.150250281e-15)
(0 -3.988505487e-15 -5.550916193e-15)
(0 -3.472865108e-15 -4.997116364e-15)
(0 -3.024516021e-15 -4.489176002e-15)
(0 -2.634470664e-15 -4.026231728e-15)
(0 -2.294848684e-15 -3.606605032e-15)
(0 -1.99877851e-15 -3.228090877e-15)
(0 -1.740290005e-15 -2.88817683e-15)
(0 -1.514207184e-15 -2.584206474e-15)
(0 -1.316046312e-15 -2.313498887e-15)
(0 -1.141922209e-15 -2.073434022e-15)
(0 -9.884639359e-16 -1.861511988e-15)
(0 -8.527400509e-16 -1.675392669e-15)
(0 -7.321929783e-16 -1.512920745e-15)
(0 -6.245817295e-16 -1.37214012e-15)
(0 -5.279320486e-16 -1.25130083e-15)
(0 -4.4049302e-16 -1.148860798e-15)
(0 -3.606991953e-16 -1.063484264e-15)
(0 -2.871373553e-16 -9.940382381e-16)
(0 -2.185170955e-16 -9.395880251e-16)
(0 -1.53644501e-16 -8.993925707e-16)
(0 -9.139904318e-17 -8.729002076e-16)
(0 -3.039847749e-17 -8.597451917e-16)
(0 -0.7230097439 -0.3481338895)
(0 -0.6214119254 -0.4768102719)
(0 -0.4733256151 -0.4848527585)
(0 -0.2835214081 -0.4426909507)
(0 -0.08824825377 -0.3194007624)
(0 0.01669409709 -0.1957789236)
(0 -0.006053117864 -0.1146490248)
(0 -0.0002007425504 -0.00843621375)
(0 -1.799335631e-14 -4.458917529e-17)
(0 -3.55536735e-14 -3.419081161e-15)
(0 -3.433321094e-14 -6.568571542e-15)
(0 -3.252848908e-14 -9.298229633e-15)
(0 -3.025471737e-14 -1.149818102e-14)
(0 -2.768555598e-14 -1.312455783e-14)
(0 -2.498207522e-14 -1.419001299e-14)
(0 -2.227823419e-14 -1.474744435e-14)
(0 -1.967482094e-14 -1.487285497e-14)
(0 -1.72399652e-14 -1.465097512e-14)
(0 -1.501353233e-14 -1.416497873e-14)
(0 -1.301312809e-14 -1.349017565e-14)
(0 -1.124019192e-14 -1.269089022e-14)
(0 -9.685348939e-15 -1.181957808e-14)
(0 -8.332691898e-15 -1.091733665e-14)
(0 -7.162969942e-15 -1.001516376e-14)
(0 -6.155816804e-15 -9.135521691e-15)
(0 -5.291208125e-15 -8.293930995e-15)
(0 -4.550339571e-15 -7.500441502e-15)
(0 -3.916092662e-15 -6.76090965e-15)
(0 -3.373221762e-15 -6.07806226e-15)
(0 -2.908362632e-15 -5.452355338e-15)
(0 -2.509934585e-15 -4.882650534e-15)
(0 -2.16798576e-15 -4.366737035e-15)
(0 -1.874014152e-15 -3.901726759e-15)
(0 -1.620784883e-15 -3.484348269e-15)
(0 -1.402155754e-15 -3.111161287e-15)
(0 -1.212917479e-15 -2.778710004e-15)
(0 -1.04865136e-15 -2.483629871e-15)
(0 -9.056048837e-16 -2.222719548e-15)
(0 -7.805844545e-16 -1.992987114e-15)
(0 -6.708637324e-16 -1.791677578e-15)
(0 -5.741057963e-16 -1.616287075e-15)
(0 -4.882972642e-16 -1.464567812e-15)
(0 -4.116925898e-16 -1.33452685e-15)
(0 -3.427668995e-16 -1.22442099e-15)
(0 -2.8017591e-16 -1.132749465e-15)
(0 -2.227216439e-16 -1.058245697e-15)
(0 -1.693228283e-16 -9.998690132e-16)
(0 -1.189890096e-16 -9.567969857e-16)
(0 -7.079833769e-17 -9.284188713e-16)
(0 -2.356360711e-17 -9.1433046e-16)
(0 -1.061783776 -0.3845744915)
(0 -1.039410489 -0.5865356608)
(0 -0.8901211214 -0.6764935776)
(0 -0.6600253117 -0.6785484915)
(0 -0.3468774876 -0.5183155687)
(0 -0.07093679926 -0.269389879)
(0 -0.007297693122 -0.1136684919)
(0 -0.0004703955599 -0.01418151855)
(0 -1.989647116e-14 -9.064955408e-17)
(0 -3.921160328e-14 -4.386177989e-15)
(0 -3.758884351e-14 -8.342270346e-15)
(0 -3.522774667e-14 -1.168890293e-14)
(0 -3.231563164e-14 -1.429164031e-14)
(0 -2.90987231e-14 -1.611571944e-14)
(0 -2.579380499e-14 -1.720627174e-14)
(0 -2.256954614e-14 -1.765882744e-14)
(0 -1.95424012e-14 -1.759206271e-14)
(0 -1.678189396e-14 -1.712758299e-14)
(0 -1.432018102e-14 -1.637730636e-14)
(0 -1.216239878e-14 -1.543708337e-14)
(0 -1.029588437e-14 -1.438467613e-14)
(0 -8.697508587e-15 -1.328039823e-14)
(0 -7.339040523e-15 -1.216913708e-14)
(0 -6.190797204e-15 -1.10829076e-14)
(0 -5.223944577e-15 -1.004343012e-14)
(0 -4.411812597e-15 -9.064467388e-15)
(0 -3.730531619e-15 -8.153810785e-15)
(0 -3.159227914e-15 -7.314896052e-15)
(0 -2.679951176e-15 -6.548075981e-15)
(0 -2.277453382e-15 -5.851597715e-15)
(0 -1.938897717e-15 -5.222337311e-15)
(0 -1.653546889e-15 -4.656341202e-15)
(0 -1.412459919e-15 -4.149217716e-15)
(0 -1.208213039e-15 -3.696414405e-15)
(0 -1.03465174e-15 -3.293409766e-15)
(0 -8.866757673e-16 -2.935841745e-15)
(0 -7.600558564e-16 -2.619590176e-15)
(0 -6.512794522e-16 -2.340826181e-15)
(0 -5.574219664e-16 -2.096038267e-15)
(0 -4.760400114e-16 -1.882042356e-15)
(0 -4.050832115e-16 -1.695981069e-15)
(0 -3.42821505e-16 -1.535316131e-15)
(0 -2.877852265e-16 -1.397816733e-15)
(0 -2.387156347e-16 -1.281545848e-15)
(0 -1.945239031e-16 -1.184845951e-15)
(0 -1.542569036e-16 -1.106325151e-15)
(0 -1.170683838e-16 -1.044844453e-15)
(0 -8.219435908e-17 -9.995066198e-16)
(0 -4.893251748e-17 -9.696469802e-16)
(0 -1.63100662e-17 -9.548263885e-16)
(0 -1.163392964 -0.3816259044)
(0 -1.24186157 -0.6780295677)
(0 -1.17821634 -0.8817685814)
(0 -1.019575985 -0.9971166874)
(0 -0.7073076975 -0.8868458861)
(0 -0.3023276167 -0.5344920503)
(0 -0.004082681806 -0.1510384337)
(0 -5.857228428e-05 -0.01819116384)
(0 -2.233983352e-14 -2.692838609e-16)
(0 -4.386645406e-14 -5.739755176e-15)
(0 -4.163593588e-14 -1.072500915e-14)
(0 -3.847785904e-14 -1.48229747e-14)
(0 -3.468153388e-14 -1.786335931e-14)
(0 -3.060018741e-14 -1.984015625e-14)
(0 -2.652518323e-14 -2.08604114e-14)
(0 -2.266402516e-14 -2.108951622e-14)
(0 -1.914357649e-14 -2.07090337e-14)
(0 -1.602520884e-14 -1.989006797e-14)
(0 -1.33230327e-14 -1.877967065e-14)
(0 -1.102049786e-14 -1.74962625e-14)
(0 -9.083506782e-15 -1.61304098e-14)
(0 -7.469809888e-15 -1.474826601e-14)
(0 -6.135201263e-15 -1.339595735e-14)
(0 -5.037262984e-15 -1.210393929e-14)
(0 -4.137376594e-15 -1.089085375e-14)
(0 -3.401588791e-15 -9.766719543e-15)
(0 -2.800768236e-15 -8.735453734e-15)
(0 -2.310357859e-15 -7.796798456e-15)
(0 -1.909923424e-15 -6.947754896e-15)
(0 -1.582623962e-15 -6.183626525e-15)
(0 -1.314678072e-15 -5.498762137e-15)
(0 -1.094866165e-15 -4.887073706e-15)
(0 -9.140873548e-16 -4.342388505e-15)
(0 -7.649769325e-16 -3.858681234e-15)
(0 -6.41583094e-16 -3.430220583e-15)
(0 -5.390978896e-16 -3.051655745e-15)
(0 -4.536357954e-16 -2.718061489e-15)
(0 -3.820529737e-16 -2.424955264e-15)
(0 -3.218006295e-16 -2.168295949e-15)
(0 -2.708065344e-16 -1.944471083e-15)
(0 -2.273795709e-16 -1.750277342e-15)
(0 -1.901329288e-16 -1.582897606e-15)
(0 -1.579223074e-16 -1.43987687e-15)
(0 -1.297961173e-16 -1.319098554e-15)
(0 -1.049552129e-16 -1.218762235e-15)
(0 -8.272014609e-17 -1.137363453e-15)
(0 -6.250429676e-17 -1.073676022e-15)
(0 -4.37915367e-17 -1.026737087e-15)
(0 -2.611810645e-17 -9.958350909e-16)
(0 -8.743015454e-18 -9.805007054e-16)
(0 -0.8080873381 -0.3019231865)
(0 -0.9981700747 -0.6360776971)
(0 -1.071086839 -0.9391408304)
(0 -1.095157759 -1.209022053)
(0 -0.9549183895 -1.27908426)
(0 -0.5876862471 -0.982397153)
(0 -0.1009589096 -0.3693719844)
(0 0.002917807918 -0.03032284342)
(0 -2.538306308e-14 -6.742207075e-16)
(0 -4.976789349e-14 -7.639505006e-15)
(0 -4.667206303e-14 -1.39939093e-14)
(0 -4.236609683e-14 -1.901380805e-14)
(0 -3.733281319e-14 -2.249810178e-14)
(0 -3.209577519e-14 -2.45208433e-14)
(0 -2.704316496e-14 -2.530562028e-14)
(0 -2.241816844e-14 -2.512984426e-14)
(0 -1.834295295e-14 -2.42646078e-14)
(0 -1.485253091e-14 -2.294412738e-14)
(0 -1.192637556e-14 -2.135518486e-14)
(0 -9.51313792e-15 -1.963800812e-14)
(0 -7.547887889e-15 -1.789253463e-14)
(0 -5.963056137e-15 -1.618637703e-14)
(0 -4.694713798e-15 -1.456254611e-14)
(0 -3.685693604e-15 -1.304608165e-14)
(0 -2.88672483e-15 -1.164935664e-14)
(0 -2.256412584e-15 -1.037612428e-14)
(0 -1.760610531e-15 -9.224499976e-15)
(0 -1.371529076e-15 -8.189097755e-15)
(0 -1.066779245e-15 -7.262523528e-15)
(0 -8.284606224e-16 -6.436393674e-15)
(0 -6.42344898e-16 -5.702011571e-15)
(0 -4.971732578e-16 -5.050802388e-15)
(0 -3.840674468e-16 -4.474580044e-15)
(0 -2.96045116e-16 -3.965699691e-15)
(0 -2.276262511e-16 -3.517133611e-15)
(0 -1.745166739e-16 -3.122497102e-15)
(0 -1.333553759e-16 -2.776042719e-15)
(0 -1.015139124e-16 -2.472635448e-15)
(0 -7.693778484e-17 -2.207717293e-15)
(0 -5.802140415e-17 -1.977266906e-15)
(0 -4.350973519e-17 -1.777757954e-15)
(0 -3.242103265e-17 -1.606118543e-15)
(0 -2.398617405e-17 -1.459693156e-15)
(0 -1.760099992e-17 -1.336207932e-15)
(0 -1.278880258e-17 -1.233739738e-15)
(0 -9.170690467e-18 -1.150689235e-15)
(0 -6.442017636e-18 -1.085757982e-15)
(0 -4.353428113e-18 -1.037929548e-15)
(0 -2.696135692e-18 -1.006454552e-15)
(0 -9.75680724e-19 -9.908395364e-16)
(0 -0.1527802554 -0.1417578663)
(0 -0.3935999981 -0.4354676324)
(0 -0.5621122477 -0.7641534792)
(0 -0.7728851681 -1.129530759)
(0 -0.9083608594 -1.433474964)
(0 -0.7884062009 -1.401463932)
(0 -0.3350257333 -0.8167453947)
(0 0.005896441586 -0.0993613312)
(0 -2.920987866e-14 -7.827041868e-16)
(0 -5.739172248e-14 -1.025264585e-14)
(0 -5.301023892e-14 -1.859481028e-14)
(0 -4.698205152e-14 -2.473887156e-14)
(0 -4.018856914e-14 -2.859364919e-14)
(0 -3.340770591e-14 -3.043922524e-14)
(0 -2.713418419e-14 -3.071141294e-14)
(0 -2.162301268e-14 -2.985981633e-14)
(0 -1.695785961e-14 -2.827566242e-14)
(0 -1.31157859e-14 -2.626688123e-14)
(0 -1.001691344e-14 -2.405913446e-14)
(0 -7.557847627e-15 -2.180821196e-14)
(0 -5.631875691e-15 -1.96154665e-14)
(0 -4.139821375e-15 -1.754225121e-14)
(0 -2.994905881e-15 -1.56218318e-14)
(0 -2.124073506e-15 -1.386852772e-14)
(0 -1.467419227e-15 -1.228439514e-14)
(0 -9.767321314e-16 -1.086393858e-14)
(0 -6.137417088e-16 -9.597334286e-15)
(0 -3.483814114e-16 -8.472574127e-15)
(0 -1.57219344e-16 -7.476849477e-15)
(0 -2.211200522e-17 -6.597412594e-15)
(0 7.091321363e-17 -5.822086276e-15)
(0 1.325653617e-16 -5.139541661e-15)
(0 1.710153428e-16 -4.539426645e-15)
(0 1.924695013e-16 -4.012400797e-15)
(0 2.01619495e-16 -3.55011402e-15)
(0 2.019930022e-16 -3.14515341e-15)
(0 1.96225858e-16 -2.790974091e-15)
(0 1.862724522e-16 -2.481823974e-15)
(0 1.735679128e-16 -2.212668532e-15)
(0 1.591528048e-16 -1.979119162e-15)
(0 1.437687923e-16 -1.77736708e-15)
(0 1.279318689e-16 -1.604123684e-15)
(0 1.119883032e-16 -1.456567662e-15)
(0 9.615730042e-17 -1.332298797e-15)
(0 8.056348426e-17 -1.22929818e-15)
(0 6.526161043e-17 -1.145894489e-15)
(0 5.025538994e-17 -1.080735918e-15)
(0 3.551189309e-17 -1.032767422e-15)
(0 2.097190534e-17 -1.001212918e-15)
(0 6.87200007e-18 -9.855621855e-16)
(0 0.4131723345 0.01951846865)
(0 0.2268078839 -0.1825144344)
(0 0.04298430663 -0.4739227751)
(0 -0.2321856109 -0.8037151787)
(0 -0.5754775915 -1.236212283)
(0 -0.8230865668 -1.57393711)
(0 -0.578414222 -1.275102148)
(0 0.002273535628 -0.2861788841)
(0 -3.481284938e-14 -1.604077032e-15)
(0 -6.814600758e-14 -1.437592514e-14)
(0 -6.115828875e-14 -2.539136832e-14)
(0 -5.236493574e-14 -3.275136586e-14)
(0 -4.303316687e-14 -3.669761862e-14)
(0 -3.421353894e-14 -3.793092475e-14)
(0 -2.646375605e-14 -3.724128005e-14)
(0 -1.998241793e-14 -3.532276086e-14)
(0 -1.475001785e-14 -3.271175478e-14)
(0 -1.063600295e-14 -2.978894945e-14)
(0 -7.46770629e-15 -2.680653165e-14)
(0 -5.069469955e-15 -2.392043861e-14)
(0 -3.281927141e-15 -2.121900856e-14)
(0 -1.969421437e-15 -1.874542427e-14)
(0 -1.020990305e-15 -1.65140635e-14)
(0 -3.482569492e-16 -1.452184013e-14)
(0 1.178643106e-16 -1.275577936e-14)
(0 4.306482709e-16 -1.119791164e-14)
(0 6.30753922e-16 -9.828328573e-15)
(0 7.489557329e-16 -8.6270148e-15)
(0 8.083822885e-16 -7.574884926e-15)
(0 8.263025792e-16 -6.654316825e-15)
(0 8.155260348e-16 -5.849374515e-15)
(0 7.854863732e-16 -5.145846399e-15)
(0 7.430734168e-16 -4.531179249e-15)
(0 6.932675084e-16 -3.994358271e-15)
(0 6.39621136e-16 -3.525764048e-15)
(0 5.846232553e-16 -3.117024588e-15)
(0 5.299740599e-16 -2.760872798e-15)
(0 4.767916462e-16 -2.45101472e-15)
(0 4.257670274e-16 -2.182010926e-15)
(0 3.772800478e-16 -1.949171652e-15)
(0 3.314857425e-16 -1.748465308e-15)
(0 2.883783857e-16 -1.576439468e-15)
(0 2.478387136e-16 -1.430153226e-15)
(0 2.096684819e-16 -1.307119793e-15)
(0 1.736155053e-16 -1.205258219e-15)
(0 1.39391572e-16 -1.122853255e-15)
(0 1.066850488e-16 -1.0585225e-15)
(0 7.516957132e-17 -1.01119009e-15)
(0 4.450910102e-17 -9.800663419e-16)
(0 1.467505221e-17 -9.646328866e-16)
(0 0.5845833755 0.01705766667)
(0 0.5538825636 -0.03721089541)
(0 0.4263475322 -0.231230307)
(0 0.1990396727 -0.466158151)
(0 -0.1283645405 -0.8004123815)
(0 -0.7028834256 -1.426310576)
(0 -0.7755547849 -1.613389467)
(0 -0.009943119601 -0.6329317138)
(0 -4.254009157e-14 -4.243503764e-15)
(0 -8.260280715e-14 -2.143132171e-14)
(0 -7.138567964e-14 -3.584096959e-14)
(0 -5.828830181e-14 -4.417531536e-14)
(0 -4.536812803e-14 -4.751408434e-14)
(0 -3.395136734e-14 -4.734605056e-14)
(0 -2.452602029e-14 -4.500080711e-14)
(0 -1.709348742e-14 -4.14789689e-14)
(0 -1.142404821e-14 -3.746028782e-14)
(0 -7.210562773e-15 -3.33711108e-14)
(0 -4.148402606e-15 -2.94579418e-14)
(0 -1.97032453e-15 -2.584822794e-14)
(0 -4.568613523e-16 -2.259484886e-14)
(0 5.651236831e-16 -1.970646119e-14)
(0 1.228678262e-15 -1.716720731e-14)
(0 1.634210633e-15 -1.494901501e-14)
(0 1.856509266e-15 -1.301898032e-14)
(0 1.950718655e-15 -1.134360067e-14)
(0 1.957155128e-15 -9.891049028e-15)
(0 1.905062236e-15 -8.632264367e-15)
(0 1.815478631e-15 -7.54135028e-15)
(0 1.703398406e-15 -6.595586755e-15)
(0 1.57938364e-15 -5.775240379e-15)
(0 1.450760628e-15 -5.063282588e-15)
(0 1.32250347e-15 -4.445078812e-15)
(0 1.197884702e-15 -3.908082864e-15)
(0 1.078953178e-15 -3.441553896e-15)
(0 9.668842521e-16 -3.03630334e-15)
(0 8.622357262e-16 -2.684473628e-15)
(0 7.651343244e-16 -2.379347542e-15)
(0 6.754109813e-16 -2.115185615e-15)
(0 5.926984221e-16 -1.887088421e-15)
(0 5.16500976e-16 -1.690880582e-15)
(0 4.462439513e-16 -1.523013487e-15)
(0 3.813079779e-16 -1.380484055e-15)
(0 3.210523077e-16 -1.260767206e-15)