/*--------------------------------*- C++ -*----------------------------------*\
  =========                 |
  \\      /  F ield         | OpenFOAM: The Open Source CFD Toolbox
   \\    /   O peration     | Website:  https://openfoam.org
    \\  /    A nd           | Version:  6
     \\/     M anipulation  |
\*---------------------------------------------------------------------------*/
FoamFile
{
    version     2.0;
    format      ascii;
    class       volScalarField;
    location    "0.04";
    object      ViscousDissipation;
}
// * * * * * * * * * * * * * * * * * * * * * * * * * * * * * * * * * * * * * //

dimensions      [1 -1 -3 0 0 0 0];

internalField   nonuniform List<scalar> 
2500
(
0.002064426554
0.007870400592
0.01248173307
0.0170185723
0.01935006599
0.02313321656
0.0137410524
0.0003520210864
0.0002819534553
3.627772407e-25
3.766038744e-27
7.433545276e-27
1.202845585e-26
1.686488992e-26
2.141858662e-26
2.526418473e-26
2.811752162e-26
2.984616934e-26
3.045421892e-26
3.005080126e-26
2.881227206e-26
2.694605078e-26
2.466113591e-26
2.21474136e-26
1.956366143e-26
1.703281531e-26
1.46425178e-26
1.2448973e-26
1.048245312e-26
8.753241406e-27
7.257226805e-27
5.98072307e-27
4.904346181e-27
4.005953967e-27
3.262748239e-27
2.652682685e-27
2.155328127e-27
1.75233513e-27
1.427612846e-27
1.167319093e-27
9.597339751e-28
7.950696716e-28
6.652531035e-28
5.637059686e-28
4.851377429e-28
4.253614364e-28
3.811395927e-28
3.500728248e-28
3.305744891e-28
3.423357976e-28
0.004704505143
0.01185023516
0.01561352951
0.01955215479
0.02121634624
0.02454296528
0.0165448218
0.002334249822
0.001818624828
3.700597283e-25
5.569074086e-27
9.217313069e-27
1.377876075e-26
1.855527457e-26
2.301993121e-26
2.674879499e-26
2.946295612e-26
3.10378011e-26
3.148617753e-26
3.09254566e-26
2.953871127e-26
2.753807331e-26
2.513521456e-26
2.252092355e-26
1.985352734e-26
1.725460566e-26
1.480993874e-26
1.257367615e-26
1.057406413e-26
8.819525164e-27
7.304323123e-27
6.013405426e-27
4.926273092e-27
4.019895839e-27
3.270781996e-27
2.65635265e-27
2.155775235e-27
1.75039836e-27
1.423907361e-27
1.162295525e-27
9.537228083e-28
7.883140886e-28
6.579329782e-28
5.559549948e-28
4.770547676e-28
4.170151833e-28
3.725601486e-28
3.411997224e-28
3.21576507e-28
4.980556392e-28
0.01084564639
0.02081233197
0.02228722443
0.02474706983
0.02477386084
0.02691659312
0.02221120887
0.006394173069
0.00477057032
3.850313895e-25
9.431830794e-27
1.301982984e-26
1.749142713e-26
2.212309255e-26
2.638286638e-26
2.985096755e-26
3.226047989e-26
3.350367115e-26
3.361173618e-26
3.271891233e-26
3.102170837e-26
2.874140682e-26
2.609459331e-26
2.327336747e-26
2.043467114e-26
1.769693959e-26
1.514186733e-26
1.281920827e-26
1.075293811e-26
8.947596787e-27
7.394082596e-27
6.07452963e-27
4.966153833e-27
4.044111752e-27
3.283500484e-27
2.660660311e-27
2.153942118e-27
1.744084678e-27
1.414322316e-27
1.150317513e-27
9.39989269e-28
7.732879372e-28
6.419512473e-28
5.392640935e-28
4.598357419e-28
3.994017764e-28
3.546536699e-28
3.230954499e-28
3.033509614e-28
8.002239181e-28
0.02296117434
0.03767905951
0.03398975611
0.03341218535
0.03026989094
0.03024468888
0.03100278479
0.01258794889
0.009197953391
4.088701037e-25
1.589266459e-26
1.934800251e-26
2.362908737e-26
2.797746009e-26
3.185822311e-26
3.486252174e-26
3.674566634e-26
3.742850139e-26
3.697175862e-26
3.553577694e-26
3.33370312e-26
3.06096662e-26
2.757640941e-26
2.442998625e-26
2.132398228e-26
1.837099873e-26
1.564568521e-26
1.31904873e-26
1.102243951e-26
9.139870681e-27
7.528359132e-27
6.165633561e-27
5.02535901e-27
4.079892295e-27
3.302163109e-27
2.666859452e-27
2.151088897e-27
1.734664946e-27
1.400139792e-27
1.13267706e-27
9.198334132e-28
7.512975648e-28
6.186192764e-28
5.149490687e-28
4.348008123e-28
3.738435621e-28
3.287253802e-28
2.969294434e-28
2.770524302e-28
1.230665304e-27
0.04597142454
0.06775018747
0.05316768807
0.04704080045
0.03823055819
0.034468092
0.04296180785
0.02081971532
0.01497825277
4.434857913e-25
2.58986221e-26
2.908615723e-26
3.299099091e-26
3.681757383e-26
4.003865885e-26
4.227056616e-26
4.330707945e-26
4.311346491e-26
4.179337801e-26
3.954297376e-26
3.660442096e-26
3.322684539e-26
2.963839798e-26
2.602977114e-26
2.254742747e-26
1.929392881e-26
1.633271175e-26
1.369507945e-26
1.13877788e-26
9.400119464e-27
7.710074953e-27
6.289155036e-27
5.106063371e-27
4.12927845e-27
3.328749407e-27
2.676906252e-27
2.149166668e-27
1.724092497e-27
1.383317046e-27
1.111334459e-27
8.952168051e-28
7.243040082e-28
5.898960797e-28
4.849656375e-28
4.039006884e-28
3.422822965e-28
2.966984758e-28
2.645929567e-28
2.445092572e-28
1.764020379e-27
0.08902114991
0.1199138161
0.08360836713
0.06741391736
0.04825599887
0.03891105428
0.05781839762
0.03058399281
0.02193866346
4.919689264e-25
4.104438536e-26
4.369098727e-26
4.687043576e-26
4.975546185e-26
5.185029931e-26
5.282266562e-26
5.253015712e-26
5.100388129e-26
4.840601217e-26
4.497774843e-26
4.099038491e-26
3.670689844e-26
3.235662493e-26
2.812223202e-26
2.413640049e-26
2.048509216e-26
1.721453733e-26
1.433970493e-26
1.185273198e-26
9.730420598e-27
7.940393164e-27
6.445821809e-27
5.208841432e-27
4.192849702e-27
3.363926117e-27
2.691591862e-27
2.149102331e-27
1.71342729e-27
1.365037382e-27
1.087583641e-27
8.675304546e-28
6.93782086e-28
5.573277121e-28
4.509192372e-28
3.687888053e-28
3.064082331e-28
2.602897693e-28
2.278252258e-28
2.074922676e-28
2.368458411e-27
0.1752822633
0.2343020363
0.1406602274
0.0993986777
0.0572028314
0.04032430556
0.07299511425
0.04036279525
0.02958671502
5.589727227e-25
6.396339956e-26
6.552480485e-26
6.732485227e-26
6.852497166e-26
6.870742706e-26
6.763659332e-26
6.527207119e-26
6.173850518e-26
5.727288586e-26
5.216745487e-26
4.672060126e-26
4.120172599e-26
3.583095925e-26
3.077151186e-26
2.61311383e-26
2.196913379e-26
1.830590455e-26
1.513299838e-26
1.242229398e-26
1.013369489e-26
8.221127239e-27
6.636919083e-27
5.334784145e-27
4.271685749e-27
3.408854161e-27
2.712198439e-27
2.152310144e-27
1.704211361e-27
1.346959169e-27
1.063185215e-27
8.386228284e-28
6.616545306e-28
5.228987869e-28
4.14845224e-28
3.31541288e-28
2.683294938e-28
2.216323305e-28
1.887802049e-28
1.681748214e-28
3.007646224e-27
0.3858241694
0.5288151476
0.2648451949
0.1588102162
0.06845503355
0.04150530899
0.08158589934
0.04601215753
0.03644104515
6.517897086e-25
9.898094689e-26
9.842129385e-26
9.762887794e-26
9.582324105e-26
9.275656618e-26
8.836639257e-26
8.276941322e-26
7.621603846e-26
6.903001248e-26
6.155103816e-26
5.409082913e-26
4.690603443e-26
4.018668319e-26
3.405639425e-26
2.858003897e-26
2.377508188e-26
1.962381223e-26
1.608470326e-26
1.310198402e-26
1.061311461e-26
8.554233882e-27
6.863848312e-27
5.485107531e-27
4.367012427e-27
3.464862625e-27
2.740194562e-27
2.160403932e-27
1.69819455e-27
1.330952748e-27
1.040112862e-27
8.105544087e-28
6.300536922e-28
4.888004589e-28
3.789823089e-28
2.944348081e-28
2.303526397e-28
1.830560247e-28
1.498058303e-28
1.289183846e-28
3.642856339e-27
0.8224572495
1.207626142
0.7110785304
0.4387081042
0.1270266507
0.04864449241
0.08279565693
0.04234810904
0.04675863248
7.821600243e-25
1.534335793e-25
1.487161007e-25
1.430583559e-25
1.358779681e-25
1.272660629e-25
1.174567379e-25
1.067962761e-25
9.568856322e-26
8.453848136e-26
7.3706452e-26
6.348007293e-26
5.406280514e-26
4.557610656e-26
3.807018764e-26
3.153891572e-26
2.593549154e-26
2.118676053e-26
1.720507786e-26
1.389740521e-26
1.11717859e-26
8.941584189e-27
7.127957791e-27
5.661020248e-27
4.480090271e-27
3.533347556e-27
2.777137399e-27
2.175098466e-27
1.697232779e-27
1.318994474e-27
1.020442736e-27
7.854825269e-28
6.012021053e-28
4.573071418e-28
3.456458391e-28
2.598167257e-28
1.948498044e-28
1.469518703e-28
1.133070629e-28
9.213775301e-29
4.23523698e-27
1.439651581
2.446141487
2.169679429
1.83669362
0.8552763669
0.1015613488
0.08641834322
0.03400083215
0.09670273448
9.68706204e-25
2.400317939e-25
2.270909397e-25
2.122551432e-25
1.953964123e-25
1.772484883e-25
1.585296489e-25
1.398922795e-25
1.218888763e-25
1.049512838e-25
8.938303256e-26
7.536445466e-26
6.296791087e-26
5.217899191e-26
4.291955971e-26
3.506946673e-26
2.848505528e-26
2.301365566e-26
1.850409431e-26
1.481368322e-26
1.181236278e-26
9.384697067e-27
7.430352581e-27
5.863579544e-27
4.612096012e-27
3.615665837e-27
2.824570877e-27
2.198107218e-27
1.70318284e-27
1.313057349e-27
1.006239564e-27
7.65543e-28
5.772899816e-28
4.30650278e-28
3.170982769e-28
2.299726812e-28
1.641238052e-28
1.15635229e-28
8.160810634e-29
6.016337696e-29
4.748141425e-27
1.088245353
2.514349388
3.18288519
3.932517605
3.508893698
1.176135559
0.1989247052
0.03389399321
0.2746920695
1.241842499e-24
3.810653673e-25
3.519367143e-25
3.196510394e-25
2.851727839e-25
2.50457808e-25
2.169681968e-25
1.856855103e-25
1.571985093e-25
1.317943148e-25
1.095364141e-25
9.032935756e-26
7.397202683e-26
6.020055488e-26
4.872155893e-26
3.923651177e-26
3.145842139e-26
2.512222392e-26
1.999033903e-26
1.585472291e-26
1.253654756e-26
9.884398128e-27
7.771652003e-27
6.093507417e-27
4.763971812e-27
3.713001675e-27
2.8839e-27
2.231019138e-27
1.717778748e-27
1.31498554e-27
9.994287687e-28
7.527197687e-28
5.603425064e-28
4.108835344e-28
2.954125655e-28
2.069884073e-28
1.402686945e-28
9.120545284e-29
5.68115807e-29
3.510040012e-29
5.149387878e-27
0.07355994443
0.5829089171
1.288335349
3.117476807
5.670043911
5.228580377
1.244930802
0.06199549785
0.4546566803
1.645492249e-24
6.159676948e-25
5.558418433e-25
4.899328195e-25
4.228551013e-25
3.589879112e-25
3.00786122e-25
2.493372467e-25
2.048589063e-25
1.670565974e-25
1.353602911e-25
1.090754479e-25
8.747695906e-26
6.986533266e-26
5.559788182e-26
4.410350685e-26
3.488698047e-26
2.752682305e-26
2.166956468e-26
1.702226149e-26
1.334446811e-26
1.044039929e-26
8.15169185e-27
6.350965063e-27
4.936241069e-27
3.826205366e-27
2.956241885e-27
2.275155941e-27
1.742492022e-27
1.326355971e-27
1.00165857e-27
7.487071616e-28
5.520821498e-28
3.997451442e-28
2.823345202e-28
1.926121967e-28
1.250323433e-28
7.540863308e-29
4.066148247e-29
1.869180979e-29
5.413314518e-27
1.608521796
0.7402276076
0.11137589
0.2003762787
2.908578746
8.080967371
5.026986848
0.4419699747
1.279057269
2.272941481e-24
1.023378832e-24
8.999661858e-25
7.666507142e-25
6.377584939e-25
5.218112656e-25
4.218892895e-25
3.381255188e-25
2.692153839e-25
2.132753341e-25
1.683037192e-25
1.324112731e-25
1.039221804e-25
8.140468782e-26
6.366528519e-26
4.972583418e-26
3.879441099e-26
3.023557664e-26
2.354287532e-26
1.831472025e-26
1.423393971e-26
1.10508073e-26
8.569178628e-27
6.63529212e-27
5.128796932e-27
3.955610435e-27
3.042259829e-27
2.331416589e-27
1.778382976e-27
1.348334453e-27
1.01415985e-27
7.547728458e-28
5.537942729e-28
3.985258397e-28
2.791528004e-28
1.881266421e-28
1.196896825e-28
6.951207908e-29
3.441862579e-29
1.219453121e-29
5.52249681e-27
3.041219765
2.821612678
2.268550171
1.511925145
0.03654587651
3.911956829
9.205215634
2.609216196
13.52097949
3.452243779e-24
1.793213098e-24
1.507404873e-24
1.228914107e-24
9.791064253e-25
7.686802074e-25
5.978095009e-25
4.621449309e-25
3.559542378e-25
2.73584363e-25
2.100541229e-25
1.612214082e-25
1.237559847e-25
9.503534425e-26
7.302104163e-26
5.614146253e-26
4.319087519e-26
3.324683287e-26
2.560457843e-26
1.972589117e-26
1.5199642e-26
1.171158493e-26
9.021314391e-27
6.944725848e-27
5.340676589e-27
4.100841093e-27
3.141991762e-27
2.400119962e-27
1.825953826e-27
1.381537007e-27
1.037614302e-27
7.716318424e-28
5.662062532e-28
4.079524375e-28
2.865863539e-28
1.942393694e-28
1.24936172e-28
7.419997845e-29
3.875795099e-29
1.627782858e-29
5.469005219e-27
1.190993274
2.071612954
2.889744328
4.318527892
3.799562646
0.01084024085
8.637397303
7.243457012
111.560289
5.504204345e-24
3.329782108e-24
2.621798557e-24
2.019965074e-24
1.529036228e-24
1.145666963e-24
8.538457325e-25
6.350001179e-25
4.722374684e-25
3.516678799e-25
2.624551733e-25
1.963953855e-25
1.473848438e-25
1.109264814e-25
8.3722665e-26
6.335886052e-26
4.806595656e-26
3.654507668e-26
2.783981487e-26
2.124354175e-26
1.62322706e-26
1.241600757e-26
9.503423944e-27
7.276125166e-27
5.56984204e-27
4.260628065e-27
3.254689367e-27
2.480860808e-27
1.885017731e-27
1.425909706e-27
1.072043501e-27
7.993436115e-28
5.893915684e-28
4.28098002e-28
3.046998073e-28
2.110028424e-28
1.408112399e-28
8.949971705e-29
5.369699028e-29
3.095318243e-29
5.25510182e-27
0.07486934199
0.284093701
1.330318711
3.215168211
8.052914989
4.234678162
4.259850636
13.33501329
546.6539386
9.284964161e-24
6.41333745e-24
4.700335698e-24
3.391840307e-24
2.421518689e-24
1.722211168e-24
1.225216369e-24
8.741792106e-25
6.265508229e-25
4.515270138e-25
3.273182982e-25
2.387009828e-25
1.750953644e-25
1.291540314e-25
9.576198386e-26
7.134258823e-26
5.338074923e-26
4.009660373e-26
3.022217843e-26
2.284807825e-26
1.73177565e-26
1.315417898e-26
1.000863017e-26
7.624734328e-27
5.812995311e-27
4.432656307e-27
3.378688352e-27
2.572397154e-27
1.954600192e-27
1.480641977e-27
1.116732563e-27
8.372447802e-28
6.22710449e-28
4.58329367e-28
3.328568609e-28
2.377726902e-28
1.666606478e-28
1.147474258e-28
7.856377197e-29
5.554373766e-29
4.893303879e-27
0.01013471163
0.03864774248
0.3787409156
1.211726557
6.289058505
12.6014365
1.050301785
18.36019621
1798.821798
1.764341464e-23
1.302405577e-23
8.685019578e-24
5.796697163e-24
3.871536896e-24
2.598948401e-24
1.758169333e-24
1.200473393e-24
8.279655737e-25
5.769370233e-25
4.060845126e-25
2.885895599e-25
2.069471921e-25
1.49643438e-25
1.090351508e-25
7.999780633e-26
5.905993312e-26
4.384548251e-26
3.271164888e-26
2.451146719e-26
1.84366794e-26
1.391268921e-26
1.052763527e-26
7.984028972e-27
6.065461436e-27
4.613471778e-27
3.511332692e-27
2.672588775e-27
2.032889818e-27
1.54412828e-27
1.170201554e-27
8.839291977e-28
6.647975222e-28
4.97301358e-28
3.697201279e-28
2.732122476e-28
2.011448651e-28
1.485993646e-28
1.120104272e-28
8.869935921e-29
4.405780426e-27
0.0132784021
0.03213318998
0.1272513854
0.3680102685
2.345673561
14.7686217
4.356542028
18.50013188
4321.725113
3.731672378e-23
2.767177349e-23
1.642893398e-23
1.001267295e-23
6.204583516e-24
3.910365839e-24
2.507236309e-24
1.635313271e-24
1.084419447e-24
7.304788324e-25
4.993129771e-25
3.459356399e-25
2.426435271e-25
1.72106438e-25
1.233122828e-25
8.915594375e-26
6.498513658e-26
4.77105482e-26
3.525326403e-26
2.619666323e-26
1.956402519e-26
1.467451035e-26
1.104867254e-26
8.345690806e-27
6.321174167e-27
4.79847474e-27
3.648975055e-27
2.778405012e-27
2.117253717e-27
1.613990965e-27
1.230235437e-27
9.37284392e-28
7.136041098e-28
5.430042101e-28
4.133029408e-28
3.153480408e-28
2.422975511e-28
1.890927537e-28
1.520757525e-28
1.284603158e-28
3.823092233e-27
0.004515844983
0.01108809008
0.03536776813
0.1321461096
0.2768046262
8.706284351
14.84388066
11.82238134
7910.382298
7.779315193e-23
5.993798245e-23
3.132053138e-23
1.725265869e-23
9.852948288e-24
5.80839813e-24
3.523970274e-24
2.194705885e-24
1.399732077e-24
9.121286881e-25
6.060291232e-25
4.09740334e-25
2.813983519e-25
1.95982869e-25
1.382127544e-25
9.856473967e-26
7.099128938e-26
5.15843326e-26
3.777701867e-26
2.785781416e-26
2.066944399e-26
1.541922553e-26
1.155769065e-26
8.699753683e-27
6.572795346e-27
4.9820228e-27
3.787071245e-27
2.886015777e-27
2.204328253e-27
1.687172587e-27
1.29397884e-27
9.945891241e-28
7.664985566e-28
5.92866471e-28
4.610745379e-28
3.616769196e-28
2.876342893e-28
2.337557677e-28
1.962961348e-28
1.723687987e-28
3.182333396e-27
0.000469867403
0.005894921717
0.01501942269
0.07209901491
0.1496945982
2.456110215
23.97851626
2.892784414
11226.73265
1.474715718e-22
1.276932262e-22
5.8483834e-23
2.899238377e-23
1.523835527e-23
8.407061162e-24
4.833357431e-24
2.879488323e-24
1.769603969e-24
1.117617879e-24
7.230560889e-25
4.77863421e-25
3.218329243e-25
2.204035672e-25
1.531940155e-25
1.078865138e-25
7.686785928e-26
5.533486964e-26
4.019946484e-26
2.944148984e-26
2.171814308e-26
1.612366847e-26
1.203881733e-26
9.034951149e-27
6.811988006e-27
5.157657345e-27
3.920377844e-27
2.990971683e-27
2.290188641e-27
1.760099229e-27
1.358095678e-27
1.052670838e-27
8.204224058e-28
6.439104257e-28
5.101150361e-28
4.093207544e-28
3.343071077e-28
2.797619409e-28
2.418598804e-28
2.176231834e-28
2.524780254e-27
0.00154389711
0.005117225743
0.01318900725
0.04188817361
0.1463021154
0.4286078896
20.83097515
0.4489226431
12274.45721
3.691367671e-22
2.496587418e-22
1.01904071e-22
4.603212444e-23
2.247729894e-23
1.168805363e-23
6.402312351e-24
3.664391368e-24
2.1777288e-24
1.337051797e-24
8.44541932e-25
5.46877655e-25
3.619432697e-25
2.441931159e-25
1.675623976e-25
1.167084845e-25
8.236669648e-26
5.881115556e-26
4.242736738e-26
3.088909756e-26
2.267249027e-26
1.6763009e-26
1.247511946e-26
9.33927289e-27
7.02984541e-27
5.31845233e-27
4.043249874e-27
3.08846855e-27
2.370591466e-27
1.828908023e-27
1.418986119e-27
1.108114966e-27
8.720939796e-28
6.929512941e-28
5.57311221e-28
4.552195572e-28
3.792955239e-28
3.241196345e-28
2.857955421e-28
2.612655949e-28
1.893196204e-27
0.002877601735
0.004836890911
0.01328735822
0.02114042238
0.07901298271
0.4565546914
13.74625758
5.869780098
10176.05168
1.0564498e-21
4.16109878e-22
1.586856506e-22
6.727821149e-23
3.108928007e-23
1.542169406e-23
8.116254646e-24
4.490884782e-24
2.593710206e-24
1.554416735e-24
9.619313091e-25
6.121471482e-25
3.991808886e-25
2.659298864e-25
1.805130043e-25
1.245679443e-25
8.721754583e-26
6.185262864e-26
4.43635148e-26
3.214049006e-26
2.349430551e-26
1.731225717e-26
1.284963294e-26
9.600706383e-27
7.2174548e-27
5.457466103e-27
4.150020481e-27
3.173679252e-27
2.441273775e-27
1.889723062e-27
1.473045553e-27
1.157511138e-27
9.182447502e-28
7.36825885e-28
5.9957909e-28
4.963491869e-28
4.196204627e-28
3.638830636e-28
3.251808532e-28
3.003894605e-28
1.328974696e-27
0.002698001615
0.004208639887
0.01075661624
0.02502730686
0.03291978587
1.145840046
8.931659797
14.10520056
6604.65635
1.881621315e-21
5.952952832e-22
2.200153971e-22
8.984795701e-23
3.998536547e-23
1.915668778e-23
9.776567307e-24
5.267760288e-24
2.97423572e-24
1.748544191e-24
1.064606033e-24
6.682160103e-25
4.306782848e-25
2.840740935e-25
1.912017928e-25
1.309928262e-25
9.115101849e-26
6.430233202e-26
4.591439512e-26
3.313855081e-26
2.414768811e-26
1.774807745e-26
1.314658425e-26
9.808104703e-27
7.366549305e-27
5.568257903e-27
4.235429827e-27
3.242123972e-27
2.498282672e-27
1.938955793e-27
1.51694333e-27
1.197715415e-27
9.558687239e-28
7.726318347e-28
6.340950265e-28
5.299461253e-28
4.525640153e-28
3.963682317e-28
3.573558927e-28
3.323508558e-28
8.693233693e-28
0.001384273965
0.003264504834
0.006211939638
0.04028428001
0.04307555753
1.568585401
4.934013877
22.27519399
2789.65525
1.843502955e-21
7.585656226e-22
2.747137692e-22
1.096046814e-22
4.758128124e-23
2.226158085e-23
1.11212488e-23
5.882004682e-24
3.268724061e-24
1.895994135e-24
1.141344142e-24
7.095460878e-25
4.536239217e-25
2.971601862e-25
1.988455523e-25
1.355544665e-25
9.392694673e-26
6.602247959e-26
4.699896118e-26
3.383428416e-26
2.460208534e-26
1.80507235e-26
1.335267495e-26
9.952088887e-27
7.470179101e-27
5.645414596e-27
4.295058386e-27
3.290040746e-27
2.538302093e-27
1.973600161e-27
1.547894306e-27
1.226103773e-27
9.824618179e-28
7.979558219e-28
6.585151364e-28
5.537197687e-28
4.758762133e-28
4.193554979e-28
3.801226116e-28
3.549660393e-28
5.446969285e-28
0.0002440407977
0.002576687251
0.003141158642
0.04880756823
0.09757957469
1.601958319
3.802563664
26.73847953
348.4253821
1.196031206e-21
8.611524174e-22
3.081137463e-22
1.21449138e-22
5.204442354e-23
2.405035515e-23
1.188198086e-23
6.223916945e-24
3.430348107e-24
1.975942314e-24
1.182523518e-24
7.315308164e-25
4.657390264e-25
3.040262642e-25
2.028349087e-25
1.379246292e-25
9.536389884e-26
6.691015769e-26
4.755724425e-26
3.419171092e-26
2.483519272e-26
1.82058414e-26
1.345826565e-26
1.002587193e-26
7.523319373e-27
5.685024275e-27
4.325713711e-27
3.31471384e-27
2.558940384e-27
1.99149063e-27
1.563894771e-27
1.240791077e-27
9.962275835e-28
8.110688075e-28
6.711621496e-28
5.660327179e-28
4.879501457e-28
4.31260754e-28
3.919131626e-28
3.666779201e-28
3.766733539e-28
0.0002440420457
0.002576686982
0.003141162292
0.0488075477
0.09757951528
1.601958565
3.802562506
26.73847899
348.4255114
1.196031276e-21
8.611522805e-22
3.081136901e-22
1.214491259e-22
5.204442567e-23
2.405036013e-23
1.188198531e-23
6.223920213e-24
3.430350347e-24
1.975943811e-24
1.182524513e-24
7.315314826e-25
4.657394786e-25
3.040265766e-25
2.028351286e-25
1.37924787e-25
9.536401403e-26
6.691024314e-26
4.75573085e-26
3.419175976e-26
2.483523015e-26
1.820587025e-26
1.345828795e-26
1.002588918e-26
7.52333267e-27
5.68503446e-27
4.325721428e-27
3.314719587e-27
2.558944552e-27
1.991493529e-27
1.563896649e-27
1.240792133e-27
9.962279792e-28
8.110686748e-28
6.71161597e-28
5.660318355e-28
4.87949009e-28
4.312594275e-28
3.919117023e-28
3.666764225e-28
3.764378477e-28
0.001384275157
0.003264502922
0.006211944965
0.04028420997
0.04307550448
1.568584797
4.934009242
22.27518279
2789.655453
1.843502648e-21
7.585650219e-22
2.747135758e-22
1.096046399e-22
4.758128573e-23
2.226159476e-23
1.112126151e-23
5.882014112e-24
3.268730555e-24
1.895998486e-24
1.141347041e-24
7.095480326e-25
4.536252444e-25
2.971611016e-25
1.98846198e-25
1.355549306e-25
9.392728627e-26
6.602273194e-26
4.699915126e-26
3.38344289e-26
2.460219646e-26
1.805080928e-26
1.335274137e-26
9.952140319e-27
7.470218813e-27
5.645445063e-27
4.295081508e-27
3.290058001e-27
2.53831464e-27
1.97360892e-27
1.547900015e-27
1.226107023e-27
9.8246309e-28
7.979555099e-28
6.585135644e-28
5.537172059e-28
4.758728864e-28
4.193516e-28
3.801183107e-28
3.549616234e-28
5.439935434e-28
0.002697997375
0.004208633644
0.01075660435
0.02502725504
0.03291984356
1.14583816
8.931655337
14.10517568
6604.654269
1.881618527e-21
5.952942159e-22
2.200150651e-22
8.984788307e-23
3.998536908e-23
1.915670821e-23
9.776586702e-24
5.267774885e-24
2.97424585e-24
1.748551012e-24
1.064610595e-24
6.682190813e-25
4.306803808e-25
2.840755495e-25
1.912028237e-25
1.309935701e-25
9.115156487e-26
6.430273964e-26
4.591470328e-26
3.313878627e-26
2.414786946e-26
1.774821789e-26
1.314669331e-26
9.808189402e-27
7.366614897e-27
5.568308382e-27
4.235468268e-27
3.242152774e-27
2.498303723e-27
1.938970595e-27
1.516953086e-27
1.197721097e-27
9.558711225e-28
7.726315978e-28
6.340926891e-28
5.299421332e-28
4.525587443e-28
3.963620037e-28
3.573489881e-28
3.323437492e-28
8.681614753e-28
0.002877590272
0.00483687673
0.01328732027
0.02114040953
0.07901273396
0.4565534298
13.7462562
5.869762396
10176.0428
1.056445339e-21
4.161084488e-22
1.586852124e-22
6.727811008e-23
3.108928098e-23
1.54217185e-23
8.116278791e-24
4.490903234e-24
2.593723117e-24
1.554425474e-24
9.619371812e-25
6.121511188e-25
3.991836116e-25
2.659317879e-25
1.805143583e-25
1.24568927e-25
8.721827182e-26
6.185317335e-26
4.436392884e-26
3.214080804e-26
2.349455161e-26
1.731244863e-26
1.284978227e-26
9.600822856e-27
7.217545392e-27
5.457536141e-27
4.150074086e-27
3.173719651e-27
2.44130352e-27
1.88974419e-27
1.473059702e-27
1.157519635e-27
9.18248678e-28
7.368261345e-28
5.995763989e-28
4.963441726e-28
4.196136481e-28
3.638748983e-28
3.251717308e-28
3.003800338e-28
1.327369808e-27
0.001543885434
0.005117204737
0.01318895956
0.04188808153
0.1463012376
0.4286057941
20.83094218
0.4489256861
12274.44195
3.691336639e-22
2.49657187e-22
1.019035998e-22
4.603201163e-23
2.247729857e-23
1.168808058e-23
6.40233958e-24
3.664412382e-24
2.177743581e-24
1.33706184e-24
8.445487057e-25
5.468822566e-25
3.619464434e-25
2.441953468e-25
1.675639978e-25
1.167096548e-25
8.236756775e-26
5.881181418e-26
4.24278716e-26
3.088948742e-26
2.267279392e-26
1.676324665e-26
1.247530588e-26
9.339419121e-27
7.029959792e-27
5.318541285e-27
4.0433184e-27
3.088520585e-27
2.370630138e-27
1.828935841e-27
1.41900511e-27
1.108126781e-27
8.720999717e-28
6.929525792e-28
5.573087287e-28
4.552140692e-28
3.79287706e-28
3.241100626e-28
2.857847239e-28
2.612543497e-28
1.89116983e-27
0.0004698667569
0.005894904555
0.01501938023
0.07209884909
0.1496939361
2.456097025
23.97848714
2.892751542
11226.73242
1.47470146e-22
1.276919595e-22
5.84834278e-23
2.899228051e-23
1.523835735e-23
8.407090374e-24
4.833386683e-24
2.879510848e-24
1.76961979e-24
1.117628627e-24
7.230633512e-25
4.778683746e-25
3.218363618e-25
2.204060026e-25
1.53195778e-25
1.078878152e-25
7.686883738e-26
5.533561593e-26
4.020004124e-26
2.944193923e-26
2.171849584e-26
1.612394658e-26
1.203903704e-26
9.035124661e-27
6.812124663e-27
5.157764384e-27
3.920460945e-27
2.991035351e-27
2.29023648e-27
1.760134147e-27
1.358120036e-27
1.052686569e-27
8.204311025e-28
6.439134094e-28
5.101134135e-28
4.093154618e-28
3.34298948e-28
2.797516139e-28
2.418480077e-28
2.176107356e-28
2.522359678e-27
0.004515850487
0.01108808668
0.03536772465
0.1321458144
0.2768034808
8.706254716
14.84390307
11.82234634
7910.395415
7.779227012e-23
5.993741686e-23
3.132023575e-23
1.725257392e-23
9.852955945e-24
5.80843027e-24
3.524001104e-24
2.194729175e-24
1.399748247e-24
9.121396051e-25
6.060364902e-25
4.097453742e-25
2.814018727e-25
1.959853862e-25
1.382145956e-25
9.856611478e-26
7.099233483e-26
5.158513917e-26
3.777764819e-26
2.785830979e-26
2.066983662e-26
1.541953774e-26
1.155793931e-26
8.699951623e-27
6.572952482e-27
4.982146896e-27
3.787168449e-27
2.886091007e-27
2.204385474e-27
1.687215022e-27
1.294009124e-27
9.946094248e-28
7.665106717e-28
5.928719013e-28
4.610745482e-28
3.616725882e-28
2.876265482e-28
2.337454364e-28
1.962839482e-28
1.723558601e-28
3.179551407e-27
0.01327836899
0.03213315285
0.1272511363
0.3680096559
2.345667168
14.76860833
4.356553953
18.50013632
4321.731187
3.731686918e-23
2.767127647e-23
1.642864111e-23
1.001259681e-23
6.204599359e-24
3.910402388e-24
2.507268725e-24
1.635336791e-24
1.084435384e-24
7.304894505e-25
4.993201092e-25
3.459405304e-25
2.426469687e-25
1.721089253e-25
1.233141257e-25
8.915733881e-26
6.498621158e-26
4.771138833e-26
3.525392771e-26
2.619719163e-26
1.956444814e-26
1.467484994e-26
1.104894551e-26
8.345910032e-27
6.321349748e-27
4.798614671e-27
3.649085742e-27
2.778491627e-27
2.117320471e-27
1.614041305e-27
1.230272202e-27
9.373099355e-28
7.136203949e-28
5.43012887e-28
4.133054103e-28
3.153455067e-28
2.422910635e-28
1.890832459e-28
1.520640703e-28
1.28447673e-28
3.819986787e-27
0.01013462931
0.03864748946
0.3787406361
1.211725409
6.289054343
12.60144476
1.050301205
18.36020623
1798.82421
1.764362523e-23
1.302333866e-23
8.684696639e-24
5.796640681e-24
3.871568926e-24
2.598991859e-24
1.758203418e-24
1.200496593e-24
8.279807235e-25
5.769469217e-25
4.060911168e-25
2.885941011e-25
2.069504179e-25
1.49645801e-25
1.090369289e-25
7.999917414e-26
5.906100374e-26
4.384633165e-26
3.271232887e-26
2.451201539e-26
1.843712327e-26
1.391304942e-26
1.052792773e-26
7.98426614e-27
6.065653219e-27
4.613626135e-27
3.511456079e-27
2.672686466e-27
2.03296615e-27
1.544186836e-27
1.170245309e-27
8.839606356e-28
6.648187289e-28
4.973140995e-28
3.697259145e-28
2.732123889e-28
2.011405154e-28
1.485915616e-28
1.120001236e-28
8.868785288e-29
4.402394248e-27
0.0748702239
0.284094903
1.330319556
3.215167762
8.05291546
4.234680917
4.259851223
13.33502391
546.654692
9.284464128e-24
6.412255815e-24
4.700038167e-24
3.391841009e-24
2.421578783e-24
1.722263337e-24
1.225251449e-24
8.742012252e-25
6.265645651e-25
4.515357992e-25
3.273241287e-25
2.387050167e-25
1.750982688e-25
1.291561968e-25
9.576364463e-26
7.134389032e-26
5.338178697e-26
4.009744057e-26
3.022285878e-26
2.284863431e-26
1.731821238e-26
1.315455321e-26
1.00089373e-26
7.624985984e-27
5.813200894e-27
4.432823499e-27
3.378823478e-27
2.572505448e-27
1.954686008e-27
1.480708946e-27
1.116783728e-27
8.372827007e-28
6.227372897e-28
4.583469729e-28
3.328668227e-28
2.377763992e-28
1.666593444e-28
1.147422398e-28
7.855575571e-29
5.553424311e-29
4.889684011e-27
1.190997243
2.07161588
2.889744718
4.318526223
3.799559396
0.01084030428
8.637403841
7.243455311
111.5602239
5.499579745e-24
3.328456567e-24
2.621717437e-24
2.020076726e-24
1.529130793e-24
1.145725348e-24
8.538793654e-25
6.350195527e-25
4.722490992e-25
3.516751995e-25
2.624600424e-25
1.963988022e-25
1.473873556e-25
1.109283988e-25
8.372417112e-26
6.336006833e-26
4.806693921e-26
3.65458839e-26
2.784048205e-26
2.124409515e-26
1.623273038e-26
1.241638962e-26
9.503741062e-27
7.276387828e-27
5.570058902e-27
4.260806337e-27
3.254835087e-27
2.480979047e-27
1.88511276e-27
1.425985129e-27
1.072102365e-27
7.993884974e-28
5.894246757e-28
4.281212178e-28
3.047147698e-28
2.110109976e-28
1.408138916e-28
8.949807052e-29
5.369218657e-29
3.094659299e-29
5.251299113e-27
3.041220792
2.821609423
2.26854658
1.511920845
0.03654544303
3.911961444
9.205215836
2.609202873
13.52096551
3.450512046e-24
1.794169464e-24
1.50790838e-24
1.22915254e-24
9.792184815e-25
7.68734596e-25
5.978373004e-25
4.621600818e-25
3.559631137e-25
2.735899682e-25
2.100579254e-25
1.612241541e-25
1.237580695e-25
9.503698747e-26
7.30223713e-26
5.614255754e-26
4.319178708e-26
3.324759735e-26
2.560522161e-26
1.972643307e-26
1.520009855e-26
1.171196912e-26
9.021637046e-27
6.944996082e-27
5.340902135e-27
4.101028543e-27
3.142146744e-27
2.400247285e-27
1.826057597e-27
1.381620734e-27
1.037680979e-27
7.71684028e-28
5.662461393e-28
4.079819161e-28
2.866070773e-28
1.942528078e-28
1.249436659e-28
7.420278636e-29
3.875728687e-29
1.627504382e-29
5.465073772e-27
1.608516155
0.740223223
0.1113743665
0.2003785239
2.908584713
8.080970942
5.02698088
0.4419681139
1.279072083
2.276452699e-24
1.024639834e-24
9.004266884e-25
7.668324247e-25
6.378356678e-25
5.218466956e-25
4.219069942e-25
3.381352117e-25
2.692212148e-25
2.132791746e-25
1.683064589e-25
1.324133563e-25
1.039238402e-25
8.140605311e-26
6.366643101e-26
4.972680731e-26
3.879524268e-26
3.023628937e-26
2.354348637e-26
1.831524355e-26
1.423438698e-26
1.10511886e-26
8.569502694e-27
6.635566603e-27
5.129028538e-27
3.955805038e-27
3.042422562e-27
2.331551923e-27
1.778494792e-27
1.348426109e-27
1.014234244e-27
7.548324736e-28
5.538412849e-28
3.985621003e-28
2.791799439e-28
1.881461307e-28
1.197028628e-28
6.952023475e-29
3.442302133e-29
1.219645225e-29
5.518493376e-27
0.07355985628
0.5829122636
1.28834043
3.117481836
5.670044039