/*--------------------------------*- C++ -*----------------------------------*\
  =========                 |
  \\      /  F ield         | OpenFOAM: The Open Source CFD Toolbox
   \\    /   O peration     | Website:  https://openfoam.org
    \\  /    A nd           | Version:  6
     \\/     M anipulation  |
\*---------------------------------------------------------------------------*/
FoamFile
{
    version     2.0;
    format      ascii;
    class       surfaceScalarField;
    location    "0.15";
    object      alphaPhi0.phase1;
}
// * * * * * * * * * * * * * * * * * * * * * * * * * * * * * * * * * * * * * //

dimensions      [0 3 -1 0 0 0 0];

internalField   nonuniform List<scalar> 
4900
(
-2.843887377e-21
-4.07469409e-21
1.128315824e-22
-2.964559666e-21
8.204733588e-22
-1.152667205e-21
9.350474889e-22
-6.099778878e-23
1.574051333e-21
1.815267983e-22
1.572980938e-21
1.151810973e-21
1.571430099e-21
1.5508393e-24
-7.849623783e-18
1.532644683e-18
-1.478222815e-20
2.663940947e-24
-1.465383763e-20
-1.283905304e-22
-1.440168764e-20
-2.521656607e-22
-1.403507615e-20
-3.666467306e-22
-1.356669357e-20
-4.68436187e-22
-1.301179822e-20
-5.549668129e-22
-1.238719731e-20
-6.246900073e-22
-1.171023226e-20
-6.77071552e-22
-1.099787608e-20
-7.124798802e-22
-1.026600593e-20
-7.32010779e-22
-9.528878142e-21
-7.372850506e-22
-8.798803729e-21
-7.302479972e-22
-8.086002579e-21
-7.129906975e-22
-7.398603399e-21
-6.876043084e-22
-6.742752373e-21
-6.560713276e-22
-6.12279494e-21
-6.201924757e-22
-5.541499636e-21
-5.815446324e-22
-5.000299036e-21
-5.414637386e-22
-4.499529182e-21
-5.010463086e-22
-4.038654742e-21
-4.611637034e-22
-3.616472045e-21
-4.224842443e-22
-3.231286043e-21
-3.854993007e-22
-2.881060032e-21
-3.505505156e-22
-2.56353897e-21
-3.178562226e-22
-2.276348392e-21
-2.875358364e-22
-2.017071633e-21
-2.596315545e-22
-1.783308296e-21
-2.341271054e-22
-1.572716921e-21
-2.109635529e-22
-1.383044607e-21
-1.900523371e-22
-1.212146084e-21
-1.712858269e-22
-1.057994404e-21
-1.545457064e-22
-9.186850761e-22
-1.397095193e-22
-7.924351911e-22
-1.26655687e-22
-6.775787697e-22
-1.152672849e-22
-5.725593174e-22
-1.054348325e-22
-4.759203512e-22
-9.705832258e-23
-3.86294446e-22
-9.004870186e-23
-3.023911083e-22
-8.432904326e-23
-2.229833589e-22
-7.983583658e-23
-1.468917194e-22
-7.652158505e-23
-7.296002777e-23
-7.436297567e-23
-7.33921303e-23
-5.366567197e-21
-2.695240061e-21
-2.664273778e-21
-4.766710457e-21
-1.608779608e-22
-2.755920393e-21
3.103051355e-23
-5.197449839e-22
2.577723221e-22
6.536448345e-23
2.375778594e-22
1.250452928e-21
-7.765797154e-22
1.016318304e-21
-3.420657886e-18
1.063217402e-19
-1.491151376e-20
-3.614121313e-25
-1.47775741e-20
-2.623614803e-22
-1.451615172e-20
-5.136535794e-22
-1.413685279e-20
-7.460449403e-22
-1.365321646e-20
-9.522038964e-22
-1.308151874e-20
-1.126827394e-21
-1.243958068e-20
-1.266822023e-21
-1.174564604e-20
-1.371230809e-21
-1.101741505e-20
-1.440965701e-21
-1.027128989e-20
-1.478420443e-21
-9.521851509e-21
-1.487037029e-21
-8.781556851e-21
-1.470884712e-21
-8.06062607e-21
-1.434291305e-21
-7.367079392e-21
-1.38154785e-21
-6.70688138e-21
-1.316692465e-21
-6.084153753e-21
-1.243368671e-21
-5.501424205e-21
-1.164747342e-21
-4.959885945e-21
-1.083498868e-21
-4.459649904e-21
-1.001802016e-21
-3.999977727e-21
-9.213774069e-22
-3.579488799e-21
-8.435356025e-22
-3.196338341e-21
-7.692321213e-22
-2.848366329e-21
-6.991238345e-22
-2.533218789e-21
-6.336230189e-22
-2.248444024e-21
-5.729468032e-22
-1.991566885e-21
-5.171608336e-22
-1.760144297e-21
-4.662167626e-22
-1.551805164e-21
-4.199836775e-22
-1.364277502e-21
-3.782739056e-22
-1.195405349e-21
-3.40863801e-22
-1.043157607e-21
-3.075101877e-22
-9.056306571e-22
-2.779631377e-22
-7.810462398e-22
-2.519757198e-22
-6.677458155e-22
-2.293112976e-22
-5.641823602e-22
-2.097488829e-22
-4.689103428e-22
-1.93086984e-22
-3.805744636e-22
-1.791463242e-22
-2.97897647e-22
-1.677717609e-22
-2.196689355e-22
-1.58833676e-22
-1.447330715e-22
-1.522288877e-22
-7.198913664e-23
-1.478797759e-22
-1.45722425e-22
-3.437544763e-21
-5.90316295e-22
-3.988181076e-21
-2.774051979e-21
-1.528441866e-21
-4.083056217e-21
-5.202924685e-23
-2.144104691e-21
-1.150114286e-22
-1.207520221e-22
-7.504471892e-23
1.246175776e-22
3.592656683e-22
5.067031129e-22
-1.138412293e-19
-5.626895939e-19
-1.517262751e-20
-5.703922361e-24
-1.50288116e-20
-4.062030247e-22
-1.474850649e-20
-7.940132944e-22
-1.43429853e-20
-1.151649896e-21
-1.382782452e-20
-1.467476327e-21
-1.322150859e-20
-1.733282421e-21
-1.254399401e-20
-1.944502822e-21
-1.181539287e-20
-2.100024922e-21
-1.105488696e-20
-2.201690955e-21
-1.027992677e-20
-2.253625873e-21
-9.505720781e-21
-2.261513673e-21
-8.744984851e-21
-2.231916146e-21
-8.007902761e-21
-2.17169316e-21
-7.302242185e-21
-2.087551815e-21
-6.633573407e-21
-1.985727584e-21
-6.00554575e-21
-1.871784911e-21
-5.420186602e-21
-1.750516575e-21
-4.87819768e-21
-1.62591861e-21
-4.379231837e-21
-1.501218622e-21
-3.922140693e-21
-1.378938442e-21
-3.505188598e-21
-1.260975885e-21
-3.126232114e-21
-1.148694244e-21
-2.782866599e-21
-1.043011579e-21
-2.472542903e-21
-9.444846693e-22
-2.192657815e-21
-8.533846953e-22
-1.940622163e-21
-7.697632633e-22
-1.713910278e-21
-6.935085184e-22
-1.510094278e-21
-6.243917636e-22
-1.326866186e-21
-5.621054228e-22
-1.16205049e-21
-5.062933873e-22
-1.013609326e-21
-4.565748402e-22
-8.796420596e-22
-4.125626285e-22
-7.583807156e-22
-3.738771671e-22
-6.481823958e-22
-3.401567506e-22
-5.475195665e-22
-3.11065033e-22
-4.549689075e-22
-2.862963159e-22
-3.6919925e-22
-2.655791777e-22
-2.889590408e-22
-2.486788667e-22
-2.13063755e-22
-2.353987413e-22
-1.403836785e-22
-2.255808114e-22
-6.98315687e-23
-2.191049751e-22
-2.158863736e-22
-7.794177823e-22
-1.952485009e-22
-2.775905117e-21
-8.640634661e-22
-3.119298029e-21
-3.323812207e-21
-6.538193641e-22
-3.713015579e-21
-1.835964991e-23
-1.258973556e-21
-5.996511542e-23
1.403760036e-23
1.798961104e-22
1.144372062e-22
6.938893626e-19
-1.190715351e-18
-1.557615638e-20
-8.127168173e-24
-1.541655252e-20
-5.658321103e-22
-1.510608505e-20
-1.104534391e-21
-1.465877077e-20
-1.599046486e-21
-1.409360784e-20
-2.032749047e-21
-1.343272344e-20
-2.394303663e-21
-1.269952529e-20
-2.677864548e-21
-1.191707947e-20
-2.882660707e-21
-1.110685022e-20
-3.012136171e-21
-1.02878473e-20
-3.072870308e-21
-9.47615747e-21
-3.073470073e-21
-8.684795321e-21
-3.023569376e-21
-7.923792521e-21
-2.933010966e-21
-7.200445714e-21
-2.811236928e-21
-6.519654643e-21
-2.666879597e-21
-5.88429735e-21
-2.507525084e-21
-5.295604741e-21
-2.339613273e-21
-4.753510275e-21
-2.168437617e-21
-4.256961126e-21
-1.998211982e-21
-3.804184938e-21
-1.832177709e-21
-3.392911539e-21
-1.672730412e-21
-3.020552227e-21
-1.521551896e-21
-2.684341044e-21
-1.379737467e-21
-2.381443187e-21
-1.247912743e-21
-2.109035826e-21
-1.126336923e-21
-1.864366277e-21
-1.014991462e-21
-1.644791989e-21
-9.136543743e-22
-1.447806161e-21
-8.219612099e-22
-1.271052251e-21
-7.394541381e-22
-1.112330012e-21
-6.656207571e-22
-9.695952212e-22
-5.999242319e-22
-8.409547937e-22
-5.418262766e-22
-7.24658621e-22
-4.908043358e-22
-6.190891527e-22
-4.463641528e-22
-5.227494944e-22
-4.080487322e-22
-4.34250597e-22
-3.754445368e-22
-3.522979563e-22
-3.481856061e-22
-2.756781264e-22
-3.259561357e-22
-2.032452301e-22
-3.08491919e-22
-1.33907438e-22
-2.955809193e-22
-6.661276435e-23
-2.870631876e-22
-2.828307613e-22
-1.980698999e-22
-1.447134629e-22
-1.13654487e-21
-4.334486847e-22
-3.312193051e-21
-2.300871141e-21
-2.485651311e-21
-4.268546354e-21
-2.385493843e-23
-2.597907259e-21
-4.556406385e-23
-1.163031903e-22
-2.335309264e-22
1.503810044e-22
1.160096284e-18
-2.060163812e-18
-1.613801437e-20
-9.972565708e-24
-1.595515859e-20
-7.487130997e-22
-1.560051427e-20
-1.459232275e-21
-1.509241677e-20
-2.107226186e-21
-1.445513328e-20
-2.670142177e-21
-1.371628046e-20
-3.133293155e-21
-1.290433861e-20
-3.489969776e-21
-1.204658774e-20
-3.740601317e-21
-1.116762728e-20
-3.891312344e-21
-1.028849512e-20
-3.952243707e-21
-9.426305867e-21
-3.935925585e-21
-8.594284011e-21
-3.855881981e-21
-7.802061544e-21
-3.725548084e-21
-7.056126227e-21
-3.557510172e-21
-6.360332259e-21
-3.363034106e-21
-5.716411948e-21
-3.151827852e-21
-5.124450108e-21
-2.931978757e-21
-4.583300813e-21
-2.710010988e-21
-4.090938806e-21
-2.491017714e-21
-3.644746033e-21
-2.278833056e-21
-3.241738489e-21
-2.076218558e-21
-2.878740921e-21
-1.885047262e-21
-2.552517614e-21
-1.70647492e-21
-2.259867276e-21
-1.541092721e-21
-1.997689258e-21
-1.389059214e-21
-1.763027373e-21
-1.25021139e-21
-1.553096541e-21
-1.124156151e-21
-1.365296533e-21
-1.010344199e-21
-1.197216192e-21
-9.08128635e-22
-1.046630802e-21
-8.168106162e-22
-9.11494659e-22
-7.356743019e-22
-7.89930387e-22
-6.640130848e-22
-6.80216158e-22
-6.011488665e-22
-5.807716686e-22
-5.464458723e-22
-4.901434728e-22
-4.993202562e-22
-4.069900903e-22
-4.592465217e-22
-3.300671676e-22
-4.257615871e-22
-2.582128528e-22
-3.984671514e-22
-1.903334361e-22
-3.7703087e-22
-1.253891746e-22
-3.611867408e-22
-6.238007329e-23
-3.50735067e-22
-3.455424649e-22
-1.197240459e-22
-9.621668056e-23
-6.035721325e-22
-2.814240249e-22
-2.446013026e-21
-1.836716005e-21
-2.98724621e-21
-4.922588806e-21
-9.718993583e-22
-4.543241505e-21
-1.665820916e-23
-1.043202382e-21
-6.210531059e-22
6.055611015e-22
1.256319227e-18
-3.665259511e-18
-1.688185162e-20
-1.42969442e-23
-1.666554867e-20
-9.650412595e-22
-1.624839572e-20
-1.876438791e-21
-1.565525949e-20
-2.700444636e-21
-1.491825078e-20
-3.407260548e-21
-1.40729592e-20
-3.97872142e-21
-1.315500068e-20
-4.408091695e-21
-1.219734934e-20
-4.698442432e-21
-1.122862114e-20
-4.860256288e-21
-1.027224445e-20
-4.908861666e-21
-9.346329278e-21
-4.86210706e-21
-8.464012898e-21
-4.738489158e-21
-7.634079832e-21
-4.555795855e-21
-6.861698591e-21
-4.330229401e-21
-6.149166352e-21
-4.075926951e-21
-5.496595404e-21
-3.804781328e-21
-4.90250775e-21
-3.526470132e-21
-4.36432667e-21
-3.248616225e-21
-3.878767928e-21
-2.977020268e-21
-3.442140882e-21
-2.715922766e-21
-3.050572961e-21
-2.468267177e-21
-2.700171531e-21
-2.235946587e-21
-2.387136207e-21
-2.020024491e-21
-2.107832958e-21
-1.820925712e-21
-1.858839474e-21
-1.638597076e-21
-1.636969394e-21
-1.472639618e-21
-1.439281363e-21
-1.322415234e-21
-1.263077483e-21
-1.187131169e-21
-1.105894602e-21
-1.06590578e-21
-9.654909624e-22
-9.578188338e-22
-8.398300591e-22
-8.619492413e-22
-7.27062997e-22
-7.774027915e-22
-6.25510251e-22
-7.033320216e-22
-5.336434308e-22
-6.389500288e-22
-4.500674279e-22
-5.835396917e-22
-3.735031685e-22
-5.364594854e-22
-3.027710741e-22
-4.971468387e-22
-2.367752454e-22
-4.651197763e-22
-1.744883128e-22
-4.399774276e-22
-1.149368382e-22
-4.213998616e-22
-5.718714048e-23
-4.091476262e-22
-4.030613215e-22
-6.538342034e-23
-3.606375806e-23
-3.327015919e-22
-1.455079131e-22
-2.072982738e-21
-9.085120915e-22
-3.799258701e-21
-5.044214912e-21
-1.902871442e-21
-8.814542676e-21
-2.841695121e-22
-4.078017526e-21
-5.139021691e-22
5.439869878e-23
9.893344536e-19
-6.488826357e-18
-1.784078502e-20
-2.280636068e-23
-1.757677044e-20
-1.229081062e-21
-1.707225299e-20
-2.38100983e-21
-1.636198477e-20
-3.410795084e-21
-1.548967802e-20
-4.279676982e-21
-1.450234476e-20
-4.966191398e-21
-1.344540367e-20
-5.465196214e-21
-1.235923963e-20
-5.78479629e-21
-1.127731553e-20
-5.942396183e-21
-1.02255821e-20
-5.960836425e-21
-9.222800104e-21
-5.865155427e-21
-8.281400418e-21
-5.680179718e-21
-7.408583903e-21
-5.428927163e-21
-6.607455473e-21
-5.131695914e-21
-5.878069011e-21
-4.805674125e-21
-5.218322241e-21
-4.464910741e-21
-4.624682786e-21
-4.120513432e-21
-4.092751871e-21
-3.780971428e-21
-3.617685114e-21
-3.452530976e-21
-3.19449474e-21
-3.139575951e-21
-2.818257679e-21
-2.844985089e-21
-2.484251557e-21
-2.570450763e-21
-2.188037164e-21
-2.316753296e-21
-1.925502332e-21
-2.083990458e-21
-1.692878833e-21
-1.871765128e-21
-1.486741057e-21
-1.679335721e-21
-1.3039929e-21
-1.505734624e-21
-1.141847505e-21
-1.349859839e-21
-9.978030606e-22
-1.210544676e-21
-8.696169091e-22
-1.086609752e-21
-7.552793817e-22
-9.769009949e-22
-6.529883013e-22
-8.803167073e-22
-5.611246807e-22
-7.958262425e-22
-4.782298932e-22
-7.224823436e-22
-4.02984415e-22
-6.594287927e-22
-3.341881175e-22
-6.059046761e-22
-2.707420123e-22
-5.61246288e-22
-2.116313015e-22
-5.248874675e-22
-1.559095534e-22
-4.963589821e-22
-1.02683809e-22
-4.75287431e-22
-5.110043952e-23
-4.613940336e-22
-4.544935758e-22
-1.563402691e-23
-4.089196773e-25
-1.005155597e-22
-5.872891576e-23
-1.036196547e-21
-1.295664495e-22
-4.405254587e-21
-2.768302515e-21
-4.659039817e-21
-1.161821515e-20
-1.422141783e-21
-1.32683837e-20
-2.821593582e-21
-2.219786825e-21
4.580754055e-19
-4.676940517e-18
-1.906035154e-20
-3.22435102e-23
-1.872843387e-20
-1.561023967e-21
-1.810184491e-20
-3.007652383e-21
-1.723075957e-20
-4.281962666e-21
-1.617616673e-20
-5.334379517e-21
-1.500138994e-20
-6.141104923e-21
-1.376509052e-20
-6.701659103e-21
-1.251695342e-20
-7.033123236e-21
-1.129588065e-20
-7.16368479e-21
-1.013002493e-20
-7.126933523e-21
-9.037939215e-21
-6.957507577e-21
-8.030249122e-21
-6.688160758e-21
-7.111438402e-21
-6.348052756e-21
-6.281503775e-21
-5.961968718e-21
-5.537361047e-21
-5.550177669e-21
-4.873967289e-21
-5.128687256e-21
-4.285171949e-21
-4.70971274e-21
-3.764333295e-21
-4.302234505e-21
-3.304744455e-21
-3.91256391e-21
-2.899912325e-21
-3.544871045e-21
-2.543727249e-21
-3.201651174e-21
-2.23055458e-21
-2.884121654e-21
-1.955272348e-21
-2.592550113e-21
-1.713273305e-21
-2.326519593e-21
-1.500444601e-21
-2.085138569e-21
-1.313134463e-21
-1.867204376e-21
-1.148112296e-21
-1.671328218e-21
-1.002526458e-21
-1.496029149e-21
-8.738623798e-22
-1.339803405e-21
-7.599026562e-22
-1.201174444e-21
-6.586899524e-22
-1.078728129e-21
-5.684931109e-22
-9.711365897e-22
-4.877765103e-22
-8.771736496e-22
-4.151725463e-22
-7.957240414e-22
-3.494569874e-22
-7.257881806e-22
-2.895269051e-22
-6.66483857e-22
-2.343808512e-22
-6.170458902e-22
-1.831009538e-22
-5.768245478e-22
-1.348366123e-22
-5.452833305e-22
-8.878948841e-23
-5.219965782e-22
-4.419952119e-23
-5.066472355e-22
-4.990250163e-22
8.183599209e-26
-8.75532228e-28
-2.266596992e-23
-2.188738481e-23
-1.450234058e-22
-3.286198721e-23
-3.104588444e-21
-3.087288987e-22
-9.305838982e-21
-6.993386106e-21
-3.824074021e-21
-2.092592887e-20
1.992899218e-20
-2.809305523e-20
-1.046255103e-18
-1.611705218e-17
-2.060751187e-20
-5.937436081e-23
-2.017467399e-20
-1.993887093e-21
-1.937590787e-20
-3.806472092e-21
-1.828305766e-20
-5.374895122e-21
-1.698288965e-20
-6.634657232e-21
-1.556202924e-20
-7.562102084e-21
-1.409669519e-20
-8.167156634e-21
-1.264768248e-20
-8.482325807e-21
-1.125930214e-20
-8.552280998e-21
-9.960762365e-21
-8.425714719e-21
-8.768737859e-21
-8.149798567e-21
-7.690264767e-21
-7.766924857e-21
-6.725455488e-21
-7.313176982e-21
-5.869792593e-21
-6.817969874e-21
-5.115931581e-21
-6.304399593e-21
-4.455037583e-21
-5.789964119e-21
-3.877725209e-21
-5.287429202e-21
-3.374683511e-21
-4.805700756e-21
-2.937064044e-21
-4.350627611e-21
-2.556698532e-21
-3.92569967e-21
-2.226199068e-21
-3.532631807e-21
-1.938980962e-21
-3.171838149e-21
-1.689237382e-21
-2.842808453e-21
-1.471886283e-21
-2.544400966e-21
-1.282503481e-21
-2.275066296e-21
-1.117250917e-21
-2.033015649e-21
-9.728057261e-22
-1.816345034e-21
-8.462933476e-22
-1.623125201e-21
-7.352263653e-22
-1.451465243e-21
-6.374497165e-22
-1.29955627e-21
-5.510922961e-22
-1.16570019e-21
-4.74524607e-22
-1.048327532e-21
-4.063219154e-22
-9.460073611e-22
-3.452322843e-22
-8.574516203e-22
-2.901488465e-22
-7.815156617e-22
-2.400856971e-22
-7.171963189e-22
-1.941568326e-22
-6.636285158e-22
-1.515576134e-22
-6.200811618e-22
-1.115482787e-22
-5.859528825e-22
-7.343909712e-23
-5.607679921e-22
-3.657677937e-23
-5.441729956e-22
-5.359338234e-22
2.30152838e-27
2.040970755e-30
-2.301524082e-24
-8.628670746e-26
-1.729448923e-23
-1.211223134e-23
-3.309891627e-22
-3.339496971e-23
-6.335070467e-21
-8.007669328e-22
8.681370945e-21
-3.553869258e-20
8.809220821e-18
-8.831036224e-18
-4.803015643e-18
-1.121699953e-15
-2.256621724e-20
-1.829816577e-22
-2.198671414e-20
-2.573415418e-21
-2.094400924e-20
-4.849230582e-21
-1.954270164e-20
-6.776284961e-21
-1.791038385e-20
-8.267084727e-21
-1.616724578e-20
-9.305376891e-21
-1.441208709e-20
-9.922478804e-21
-1.271788051e-20
-1.017672226e-20
-1.113297115e-20
-1.013740624e-20
-9.685057681e-21
-9.873869633e-21
-8.386044159e-21
-9.449078608e-21
-7.236663645e-21
-8.916596427e-21
-6.230363613e-21
-8.319792024e-21
-5.35630962e-21
-7.692362203e-21
-4.601559806e-21
-7.059510408e-21
-3.952547108e-21
-6.439359783e-21
-3.396025952e-21
-5.84435456e-21
-2.919627785e-21
-5.282523601e-21
-2.512144665e-21
-4.758555103e-21
-2.16363274e-21
-4.274674855e-21
-1.865402869e-21
-3.831343004e-21
-1.609945574e-21
-3.427793999e-21
-1.390822168e-21
-3.062446793e-21
-1.202542691e-21
-2.733210898e-21
-1.040443336e-21
-2.437710766e-21
-9.005706789e-22
-2.173447209e-21
-7.795764604e-22
-1.937911077e-21
-6.746243658e-22
-1.728661173e-21
-5.833089215e-22
-1.543375752e-21
-5.035858068e-22
-1.379884774e-21
-4.33712499e-22
-1.236188353e-21
-3.721980106e-22
-1.11046549e-21
-3.177604642e-22
-1.001076146e-21
-2.692913212e-22
-9.065589303e-22
-2.258251881e-22
-8.256260578e-22
-1.865142469e-22
-7.571567922e-22
-1.506064786e-22
-7.001902647e-22
-1.174269612e-22
-6.539182924e-22
-8.636162511e-23
-6.176786534e-22
-5.684293314e-23
-5.909491328e-22
-2.833702585e-23
-5.733425604e-22
-5.646029877e-22
1.073602069e-30
5.934078239e-35
1.214481777e-24
2.861021624e-26
-4.371745679e-24
-2.940833017e-24
-2.921690626e-23
-1.099384352e-23
-3.464438706e-22
-4.647689514e-22
7.989423482e-20
-1.157664343e-19
1.185876391e-17
-2.061098004e-17
-1.038665686e-17
-2.164477429e-15
-2.499647937e-20
-8.156633432e-23
-2.426152404e-20
-3.308395971e-21
-2.287062608e-20
-6.240182123e-21
-2.103341983e-20
-8.613573439e-21
-1.894883189e-20
-1.035178235e-20
-1.678463845e-20
-1.146970705e-20
-1.466667611e-20
-1.204060461e-20
-1.267891032e-20
-1.216467792e-20
-1.086974863e-20
-1.194678381e-20
-9.260533867e-21
-1.148332585e-20
-7.853778349e-21
-1.085610067e-20
-6.640027368e-21
-1.01306385e-20
-5.60305955e-21
-9.357074901e-21
-4.723548259e-21
-8.572211895e-21
-3.981471282e-21
-7.801948464e-21
-3.357581956e-21
-7.063632169e-21
-2.834218394e-21
-6.368122429e-21
-2.395670401e-21
-5.721496392e-21
-2.028266721e-21
-5.126403286e-21
-1.720297076e-21
-4.583107903e-21
-1.461845982e-21
-4.090275577e-21
-1.244587941e-21
-3.645550758e-21
-1.061574425e-21
-3.245975415e-21
-9.070300925e-22
-2.888285867e-21
-7.761672621e-22
-2.569118897e-21
-6.650223696e-22
-2.285151199e-21
-5.703149741e-22
-2.033190497e-21
-4.893281186e-22
-1.810232111e-21
-4.198079667e-22
-1.613491177e-21
-3.598803017e-22
-1.44041804e-21
-3.079814536e-22
-1.288702273e-21
-2.628013758e-22
-1.156269256e-21
-2.232368244e-22
-1.041272156e-21
-1.883528575e-22
-9.420812861e-22
-1.57351129e-22
-8.572722721e-22
-1.295436875e-22
-7.856139891e-22
-1.043312027e-22
-7.260569532e-22
-8.11847172e-23
-6.77722614e-22
-5.963017312e-23
-6.398938545e-22
-3.923508403e-23
-6.120068918e-22
-1.959681802e-23
-5.936447042e-22
-5.845320561e-22
5.931126453e-35
7.346090192e-39
1.205370273e-26
9.694043977e-30
-8.375205864e-26
1.697878902e-24
-7.703667384e-24
-5.006236438e-24
-4.109263979e-22
-6.382728645e-23
-1.139053062e-19
-2.228647598e-21
-2.045937711e-17
-2.577375866e-19
-1.900606421e-17
-1.943760047e-17
-2.830862088e-20
-2.380342892e-22
-2.719247241e-20
-4.424569686e-21
-2.524363421e-20
-8.18907388e-21
-2.277170248e-20
-1.108558736e-20
-2.006712156e-20
-1.305647291e-20
-1.735603557e-20
-1.418092973e-20
-1.479127235e-20
-1.460553125e-20
-1.246149708e-20
-1.449464302e-20
-1.040669872e-20
-1.400179803e-20
-8.633635625e-21
-1.325663039e-20
-7.128566334e-21
-1.23614365e-20
-5.866647406e-21
-1.139284854e-20
-4.818325785e-21
-1.040571161e-20
-3.953371403e-21
-9.437504728e-21
-3.243209188e-21
-8.512471825e-21
-2.662102554e-21
-7.645121945e-21
-2.187605589e-21
-6.8430238e-21
-1.800578628e-21
-6.108948263e-21
-1.484964687e-21
-5.442461855e-21
-1.227453005e-21
-4.841083125e-21
-1.01710641e-21
-4.301103801e-21
-8.449963197e-22
-3.818159724e-21
-7.038681013e-22
-3.387618908e-21
-5.878465444e-22
-3.004838237e-21
-4.92183639e-22
-2.665327288e-21
-4.13046679e-22
-2.364847448e-21
-3.473426952e-22
-2.099466704e-21
-2.925744648e-22
-1.865584628e-21
-2.467233037e-22
-1.65993782e-21
-2.08154184e-22
-1.479592974e-21
-1.755392232e-22
-1.321932521e-21
-1.477961454e-22
-1.18463624e-21
-1.240388489e-22
-1.065661132e-21
-1.035377016e-22
-9.63221045e-22
-8.568761029e-23
-8.757670729e-22
-6.998226864e-23
-8.019693106e-22
-5.599328602e-23
-7.407003643e-22
-4.335314511e-23
-6.910208156e-22
-3.17411301e-23
-6.521667505e-22
-2.087152335e-23
-6.235393918e-22
-1.048348767e-23
-6.046968399e-22
-5.953479059e-22
7.344918411e-39
1.171780837e-42
4.284454426e-30
2.276322055e-33
3.417893932e-24
2.646091656e-24
-2.747962498e-24
-3.490520752e-25
-9.354648106e-23
-4.570999657e-23
-7.707476688e-22
-2.594146508e-21
9.406843594e-20
-3.539568987e-19
-3.062871169e-17
-3.021186768e-17
-3.267823071e-20
-6.142220764e-22
-3.095588474e-20
-6.146940865e-21
-2.813985968e-20
-1.100515247e-20
-2.474298206e-20
-1.448254712e-20
-2.119230888e-20
-1.660725566e-20
-1.778145669e-20
-1.759191853e-20
-1.468114991e-20
-1.770600139e-20
-1.196929879e-20
-1.720668391e-20
-9.662041464e-21
-1.630927116e-20
-7.738824111e-21
-1.518008915e-20
-6.160252049e-21
-1.394027509e-20
-4.879697523e-21
-1.267369417e-20
-3.850239898e-21
-1.143548435e-20
-3.028410923e-21
-1.025967219e-20
-2.375897098e-21
-9.165346851e-21
-1.860018255e-21
-8.161384002e-21
-1.453527906e-21
-7.249918642e-21
-1.134079852e-21
-6.428821329e-21
-8.835674655e-22
-5.693418986e-21
-6.874519149e-22
-5.037662346e-21
-5.341392289e-22
-4.454898257e-21
-4.144323419e-22
-3.938365641e-21
-3.210650301e-22
-3.481501657e-21
-2.483144507e-22
-3.078119802e-21
-1.916841835e-22
-2.722503222e-21
-1.47647973e-22
-2.409443136e-21
-1.134443385e-22
-2.134242756e-21
-8.691302329e-23
-1.892700429e-21
-6.636539901e-23
-1.681081132e-21
-5.0482155e-23
-1.496082242e-21
-3.823275056e-23
-1.334797425e-21
-2.881212562e-23
-1.194680989e-21
-2.159103488e-23
-1.073514121e-21
-1.607709467e-23
-9.693738175e-22
-1.188422357e-23
-8.806048757e-22
-8.708635612e-24
-8.057951015e-22
-6.309926257e-24
-7.437537256e-22
-4.496092829e-24
-6.934929332e-22
-3.111566915e-24
-6.542123807e-22
-2.027518796e-24
-6.252865559e-22
-1.133832431e-24
-6.062548481e-22
-5.968142104e-22
1.143281274e-42
2.849956323e-44
2.275914818e-33
4.072382582e-37
1.004910868e-24
9.5266116e-26
9.261222869e-26
2.965213928e-25
-8.919482725e-23
-1.041254991e-23
-1.2725809e-21
-2.23634764e-21
2.409634794e-19
-5.979029287e-19
-3.95029066e-17
-5.767041389e-17
-3.85693411e-20
-1.209553921e-21
-3.581281361e-20
-8.903493547e-21
-3.161739224e-20
-1.520062731e-20
-2.686874938e-20
-1.923127205e-20
-2.21783151e-20
-2.129779943e-20
-1.789682224e-20
-2.187354792e-20
-1.418290652e-20
-2.142008037e-20
-1.107271592e-20
-2.031706419e-20
-8.533463928e-21
-1.884873888e-20
-6.499428574e-21
-1.721436586e-20
-4.893946318e-21
-1.554602384e-20
-3.641657542e-21
-1.392627404e-20
-2.67452304e-21
-1.240293397e-20
-1.93412991e-21
-1.100040383e-20
-1.371944934e-21
-9.72789307e-21
-9.485422966e-22
-8.585169912e-21
-6.324072963e-22
-7.566458213e-21
-3.986473417e-22
-6.663006389e-21
-2.27777641e-22
-5.86473354e-21
-1.046541007e-22
-5.161249679e-21
-1.757387517e-23
-4.542460387e-21
4.246250404e-23
-3.998901197e-21
8.234534519e-23
-3.521900093e-21
1.073281148e-22
-3.103633723e-21
1.213993337e-22
-2.737120281e-21
1.275733691e-22
-2.416176831e-21
1.281166216e-22
-2.135358614e-21
1.247227509e-22
-1.88989124e-21
1.186479904e-22
-1.675602258e-21
1.108153618e-22
-1.488855842e-21
1.018947559e-22
-1.326492528e-21
9.236433609e-23
-1.185774904e-21
8.25575261e-23
-1.064339423e-21
7.269889255e-23
-9.601542328e-22
6.29314913e-23
-8.714826243e-22
5.333766849e-23
-7.968517009e-22
4.395485899e-23
-7.350257879e-22
3.478758031e-23
-6.849841588e-22
2.581655582e-23
-6.459026804e-22
1.700570078e-23
-6.171390361e-22
8.307555178e-24
-5.982212429e-22
-5.888392344e-22
6.861778252e-41
2.232757343e-42
3.9979483e-36
6.24017232e-37
2.716807588e-26
7.397947883e-29
2.389596599e-25
1.871905775e-26
-1.136312831e-23
5.981531579e-26
-1.344550987e-21
-1.440776277e-21
3.195759478e-19
-9.205549239e-19
-1.936385101e-17
-1.051939249e-16
-4.689556236e-20
-2.615072717e-21
-4.210942332e-20
-1.368965775e-20
-3.564954079e-20
-2.166056325e-20
-2.893763557e-20
-2.594325923e-20
-2.275636551e-20
-2.747917885e-20
-1.744524881e-20
-2.718480101e-20
-1.308130863e-20
-2.578418367e-20
-9.605385003e-21
-2.379317738e-20
-6.899750101e-21
-2.155458941e-20
-4.831498655e-21
-1.928285857e-20
-3.274435236e-21
-1.710335368e-20
-2.118439312e-21
-1.508256102e-20
-1.27203893e-21
-1.324964945e-20
-6.616180459e-22
-1.161116323e-20
-2.291929959e-22
-1.016067939e-20
7.02130396e-23
-8.884959269e-21
2.710948049e-22
-7.767744615e-21
3.996773324e-22
-6.792014105e-21
4.757565752e-22
-5.941257735e-21
5.141824046e-22
-5.200139413e-21
5.260285778e-22
-4.554788591e-21
5.195026371e-22
-3.992874569e-21
5.00646547e-22
-3.503559745e-21
4.738724023e-22
-3.077390887e-21
4.423699479e-22
-2.706163834e-21
4.084154056e-22
-2.382782122e-21
3.736048121e-22
-2.101120807e-21
3.390298715e-22
-1.855901167e-21
3.054101699e-22
-1.642578636e-21
2.73192332e-22
-1.457244429e-21
2.426241725e-22
-1.296540279e-21
2.138099533e-22
-1.157585224e-21
1.867513813e-22
-1.037913172e-21
1.613778494e-22
-9.354199595e-22
1.375685795e-22
-8.483187156e-22
1.151686738e-22
-7.7510243e-22
9.400059967e-23
-7.14512799e-22
7.387226324e-23
-6.655145404e-22
5.458255477e-23
-6.272745098e-22
3.592504089e-23
-5.991450708e-22
1.769033029e-23
-5.806512851e-22
-5.714815859e-22
1.020605421e-40
2.339075201e-42
4.24363083e-33
4.582996423e-34
2.583524983e-29
8.39055597e-33
1.048441236e-26
7.955797106e-29
1.89442869e-24
1.576318995e-24
-1.207820314e-21
-1.061414585e-21
1.565197155e-18
-2.491426069e-18
-3.481915309e-17
-2.182829999e-16
-5.898257244e-20
-6.830782914e-21
-5.008315001e-20
-2.258910531e-20
-3.993692756e-20
-3.180683901e-20
-3.047812601e-20
-3.540214259e-20
-2.246560043e-20
-3.549181362e-20
-1.604720587e-20
-3.360333176e-20
-1.109201335e-20
-3.073953914e-20
-7.367867439e-21
-2.751751268e-20
-4.628645142e-21
-2.429402718e-20
-2.652325755e-21
-2.12594191e-20
-1.25378829e-21
-1.850215748e-20
-2.855605211e-22
-1.605107977e-20
3.664792413e-22
-1.390200427e-20
7.889317913e-22
-1.203395429e-20
1.046608204e-21
-1.041871709e-20
1.187512592e-21
-9.026247011e-21
1.246907671e-21
-7.827544384e-21
1.250510208e-21
-6.796041903e-21
1.216944093e-21
-5.90813666e-21
1.159594743e-21
-5.14325407e-21
1.087996668e-21
-4.483672662e-21
1.008864624e-21
-3.914241966e-21
9.268563365e-22
-3.422067339e-21
8.451348601e-22
-2.996200867e-21
7.657822176e-22
-2.627357355e-21
6.901030566e-22
-2.307662959e-21
6.188471255e-22
-2.030437834e-21
5.523719036e-22
-1.790010991e-21
4.90761132e-22
-1.581564127e-21
4.339108556e-22
-1.401000766e-21
3.815915308e-22
-1.244837056e-21
3.334925037e-22
-1.110110932e-21
2.892535083e-22
-9.943066943e-22
2.484866118e-22
-8.952925219e-22
2.107911429e-22
-8.112688102e-22
1.757634699e-22
-7.407255954e-22
1.430030148e-22
-6.824076335e-22
1.121155249e-22
-6.352859735e-22
8.271436322e-23
-5.985350908e-22
5.442038095e-23
-5.715148416e-22
2.686079923e-23
-5.5375666e-22
-5.449535653e-22
3.768661579e-42
2.443279241e-45
5.333179853e-34
8.516801111e-36
2.288564125e-32
1.326545633e-33
3.267175075e-29
3.307933256e-32
2.226441518e-24
5.153000966e-25
-1.22029851e-21
1.611052637e-22
1.733579649e-17
-1.984643056e-17
3.826420427e-17
-2.359085747e-15
-7.622852003e-20
-2.016279015e-20
-5.931334891e-20
-3.950430154e-20
-4.354279395e-20
-4.757744716e-20
-3.057542161e-20
-4.836959653e-20
-2.058212498e-20
-4.548521919e-20
-1.318649399e-20
-4.099909868e-20
-7.871768201e-21
-3.605442762e-20
-4.145332384e-21
-3.124413767e-20
-1.594478973e-21
-2.684509588e-20
1.04791656e-22
-2.295893072e-20
1.197310069e-21
-1.959494211e-20
1.863619508e-21
-1.671768011e-20
2.234669898e-21
-1.427336966e-20
2.404318849e-21
-1.220394172e-20
2.439222934e-21
-1.045398245e-20
2.386347752e-21
-8.973755207e-21
2.278527901e-21
-7.720129265e-21
2.138518096e-21
-6.656457418e-21
1.981915096e-21
-5.751978777e-21
1.819251739e-21
-4.981054812e-21
1.657491697e-21
-4.32239487e-21
1.501093872e-21
-3.758343698e-21
1.352769134e-21
-3.274258608e-21
1.214017656e-21
-2.857980983e-21
1.085509941e-21
-2.499395948e-21
9.673564748e-22
-2.190069643e-21
8.592980082e-22
-1.922952485e-21
7.60839205e-22
-1.692137399e-21
6.713418753e-22
-1.492663231e-21
5.900893436e-22
-1.320355023e-21
5.163302059e-22
-1.1716942e-21
4.493073772e-22
-1.043713021e-21
3.882766591e-22
-9.339086807e-22
3.325178569e-22
-8.401733672e-22
2.813406202e-22
-7.607373275e-22
2.340865653e-22
-6.941225708e-22
1.901287934e-22
-6.391053441e-22
1.488696013e-22
-5.946858976e-22
1.097369502e-22
-5.600643758e-22
7.218009409e-23
-5.346219316e-22
3.566465162e-23
-5.179063664e-22
-5.096217823e-22
1.602530561e-45
1.905541542e-49
4.416054783e-36
1.990518873e-39
1.634699824e-32
2.263562768e-33
7.690711574e-32
1.242153203e-32
2.649201622e-25
1.788131779e-26
3.861722602e-25
1.011540603e-27
1.052576306e-16
-1.251040597e-16
-7.002861782e-17
-4.670667652e-14
-9.760235807e-20
-5.58224887e-20
-6.741655646e-20
-6.969012814e-20
-4.435295339e-20
-7.064110321e-20
-2.770140879e-20
-6.502122244e-20
-1.610171428e-20
-5.708502229e-20
-8.244784246e-21
-4.885616431e-20
-3.062861221e-21
-4.123651303e-20
2.532014237e-22
-3.45603892e-20
2.29163924e-21
-2.888374875e-20
3.468956811e-21
-2.41364891e-20
4.074840168e-21
-2.020109153e-20
4.308219568e-21
-1.695135031e-20
4.304374256e-21
-1.426983929e-20
4.154526234e-21
-1.205443214e-20
3.919665353e-21
-1.021948284e-20
3.640156529e-21
-8.694629769e-21
3.34235322e-21
-7.42273072e-21
3.043124654e-21
-6.357654221e-21
2.752945287e-21
-5.462244592e-21
2.477999768e-21
-4.706573471e-21
2.221615925e-21
-4.06649337e-21
1.985239625e-21
-3.52246706e-21
1.769097226e-21
-3.058632331e-21
1.57264477e-21