/*--------------------------------*- C++ -*----------------------------------*\
  =========                 |
  \\      /  F ield         | OpenFOAM: The Open Source CFD Toolbox
   \\    /   O peration     | Website:  https://openfoam.org
    \\  /    A nd           | Version:  6
     \\/     M anipulation  |
\*---------------------------------------------------------------------------*/
FoamFile
{
    version     2.0;
    format      ascii;
    class       volVectorField;
    location    "0.15";
    object      gradT;
}
// * * * * * * * * * * * * * * * * * * * * * * * * * * * * * * * * * * * * * //

dimensions      [0 -1 0 1 0 0 0];

internalField   nonuniform List<vector> 
2500
(
(0 -1878.818353 35851.11971)
(0 -4475.987552 31712.70364)
(0 -4716.051586 25239.60992)
(0 -3769.030346 18534.15943)
(0 -2928.382439 12538.86964)
(0 -2348.866053 7761.02634)
(0 -2036.466189 3768.612562)
(0 -989.7610408 177.4219336)
(0 -31.6620559 88.64953567)
(0 -12.84251153 58.35967418)
(0 -8.478982009 37.92353929)
(0 -5.57166302 24.26258824)
(0 -3.610726801 15.2591622)
(0 -2.300115623 9.421417162)
(0 -1.438171999 5.70250411)
(0 -0.8816087107 3.378078879)
(0 -0.5291409413 1.955095897)
(0 -0.3104682836 1.103559661)
(0 -0.1777711102 0.60650027)
(0 -0.09915981243 0.324063464)
(0 -0.05379153092 0.1681321598)
(0 -0.02833695023 0.08461802218)
(0 -0.01447846085 0.04128087857)
(0 -0.007168284355 0.0195118547)
(0 -0.003436760703 0.008933002868)
(0 -0.001594988921 0.003961095697)
(0 -0.000716433784 0.001701342331)
(0 -0.0003114768375 0.0007079812893)
(0 -0.0001310972186 0.0002855266185)
(0 -5.343432056e-05 0.0001116484951)
(0 -2.110344942e-05 4.234604753e-05)
(0 -8.079000251e-06 1.558314747e-05)
(0 -2.997131969e-06 5.56957103e-06)
(0 -1.079637606e-06 1.931564521e-06)
(0 -3.762238007e-07 6.503801313e-07)
(0 -1.232432938e-07 2.161816311e-07)
(0 -3.675181843e-08 7.698588343e-08)
(0 -1.971704472e-08 3.336368664e-08)
(0 -1.515247828e-08 2.729328386e-09)
(0 -4.65868121e-09 -7.34095221e-09)
(0 -1.364664193e-09 -1.317606807e-08)
(0 0 -1.534070782e-08)
(0 2.635213614e-09 -1.317606807e-08)
(0 5.505714157e-09 -8.61150163e-09)
(0 4.988082912e-09 2.541098842e-09)
(0 1.929352824e-09 6.446861876e-09)
(0 1.411721579e-10 6.823320964e-09)
(0 -2.823443158e-10 6.87037835e-09)
(0 -1.788180666e-09 6.540976648e-09)
(0 -2.399926684e-09 2.305811912e-09)
(0 -2259.597715 19583.35075)
(0 -6135.52223 19527.18953)
(0 -8462.492619 18410.09536)
(0 -8931.709936 15316.74255)
(0 -7844.750653 11013.43697)
(0 -6421.391026 6945.96523)
(0 -5547.138218 3451.310673)
(0 -2690.201985 175.0166365)
(0 -87.40020348 93.92117558)
(0 -37.88348485 64.10733753)
(0 -25.61810392 43.10552207)
(0 -17.09271406 28.55182294)
(0 -11.23044428 18.60003755)
(0 -7.256542469 11.88941312)
(0 -4.605166283 7.437508371)
(0 -2.865799503 4.541168516)
(0 -1.745378277 2.699778419)
(0 -1.038127343 1.559581519)
(0 -0.6017250872 0.8739409142)
(0 -0.3392082977 0.4744602727)
(0 -0.1856539109 0.2493286007)
(0 -0.09851433097 0.1267505343)
(0 -0.05062770663 0.06231636418)
(0 -0.02517959139 0.02962752036)
(0 -0.01211399821 0.01362303488)
(0 -0.005636671662 0.006059601001)
(0 -0.002536680624 0.002608314012)
(0 -0.001104338922 0.001086954653)
(0 -0.0004652355756 0.0004387493259)
(0 -0.0001897462034 0.0001716394624)
(0 -7.496185114e-05 6.510939919e-05)
(0 -2.869757037e-05 2.396627961e-05)
(0 -1.065445098e-05 8.563644269e-06)
(0 -3.839553293e-06 2.972473899e-06)
(0 -1.339064975e-06 1.00251055e-06)
(0 -4.501509541e-07 3.282252671e-07)
(0 -1.461602408e-07 1.038085934e-07)
(0 -5.449245294e-08 3.011672701e-08)
(0 -2.555216058e-08 1.016439537e-08)
(0 -1.129377263e-08 3.388131789e-09)
(0 -6.63509142e-09 -3.529303947e-09)
(0 0 -4.235164736e-09)
(0 4.046935192e-09 -2.870500543e-09)
(0 1.025851014e-08 -4.376336894e-09)
(0 1.002322321e-08 -1.74112328e-09)
(0 2.44698407e-09 2.164639754e-09)
(0 2.823443158e-10 2.494041456e-09)
(0 0 2.023467596e-09)
(0 -2.776385772e-09 2.729328386e-09)
(0 -6.493919262e-09 4.282222122e-09)
(0 -1934.979568 11343.45393)
(0 -5649.242942 12058.03499)
(0 -8926.498571 12767.66903)
(0 -11165.68873 12442.40258)
(0 -11299.15975 10218.09305)
(0 -9910.99235 6803.623486)
(0 -8807.414782 3529.534679)
(0 -4347.150538 193.3198517)
(0 -142.5713549 110.4355203)
(0 -63.65816504 79.20339978)
(0 -44.03449661 56.1416907)
(0 -30.07714754 39.20464153)
(0 -20.27313661 26.85864016)
(0 -13.4626448 17.97563122)
(0 -8.786416605 11.70847865)
(0 -5.619338663 7.399541329)
(0 -3.510727938 4.526878004)
(0 -2.136305788 2.676610448)
(0 -1.262892357 1.527981915)
(0 -0.7237721261 0.8416880887)
(0 -0.4015012692 0.4472901836)
(0 -0.2153491867 0.2293251736)
(0 -0.1116014747 0.1134595307)
(0 -0.05586161365 0.05419020914)
(0 -0.02700468011 0.02499763761)
(0 -0.01260970979 0.01114331294)
(0 -0.005689080226 0.004803157879)
(0 -0.002481041476 0.002003141911)
(0 -0.001046412409 0.0008088209381)
(0 -0.0004270742473 0.0003163984284)
(0 -0.0001687766322 0.000119993746)
(0 -6.462470811e-05 4.414839247e-05)
(0 -2.399093768e-05 1.576596542e-05)
(0 -8.640818382e-06 5.470750519e-06)
(0 -3.020472433e-06 1.844414243e-06)
(0 -1.021992308e-06 6.015816221e-07)
(0 -3.347662437e-07 1.88370716e-07)
(0 -1.134083002e-07 5.618651883e-08)
(0 -4.192813089e-08 2.141111061e-08)
(0 -1.830532314e-08 9.834993665e-09)
(0 -8.893845946e-09 4.65868121e-09)
(0 6.588034034e-10 -5.646886315e-10)
(0 2.494041456e-09 -2.682271e-09)
(0 6.63509142e-09 -2.258754526e-09)
(0 1.152905956e-08 -6.917435736e-09)
(0 6.023345403e-09 -4.046935192e-09)
(0 0 0)
(0 -4.705738596e-11 6.588034034e-10)
(0 5.176312455e-10 -1.882295438e-10)
(0 -9.364419806e-09 9.411477192e-11)
(0 -1545.016661 7673.41149)
(0 -4711.307127 8446.258494)
(0 -8078.125027 9579.334678)
(0 -11481.28592 10440.06029)
(0 -13483.52975 9931.886515)
(0 -13109.94939 7157.506895)
(0 -12157.44185 3784.738675)
(0 -6109.301144 233.6242726)
(0 -201.5166554 145.2244051)
(0 -92.17731444 110.4591745)
(0 -65.61686218 82.92148927)
(0 -46.3757646 61.00366025)
(0 -32.45945459 43.71424223)
(0 -22.40670398 30.36810128)
(0 -15.18125618 20.38378985)
(0 -10.04740015 13.19096426)
(0 -6.468309158 8.219344269)
(0 -4.037023432 4.928321519)
(0 -2.436647446 2.843130555)
(0 -1.419900029 1.578352777)
(0 -0.798016826 0.8435056727)
(0 -0.432344984 0.4341878864)
(0 -0.2257626712 0.2153984484)
(0 -0.1136414844 0.1030569959)
(0 -0.0551608944 0.04758747306)
(0 -0.0258311513 0.02122299015)
(0 -0.01167685166 0.00914831629)
(0 -0.00509867591 0.003814334345)
(0 -0.002151979059 0.001539424548)
(0 -0.0008785734425 0.0006018299439)
(0 -0.0003472117929 0.0002280765618)
(0 -0.000132925398 8.384416803e-05)
(0 -4.933214e-05 2.991908599e-05)
(0 -1.776105741e-05 1.037017732e-05)
(0 -6.208327987e-06 3.493116817e-06)
(0 -2.106147423e-06 1.14184747e-06)
(0 -6.915082867e-07 3.606007486e-07)
(0 -2.214991157e-07 1.106319144e-07)
(0 -7.176251359e-08 3.85399991e-08)
(0 -2.809325942e-08 1.6093626e-08)
(0 -1.717594587e-08 7.388009595e-09)
(0 -7.34095221e-09 2.023467596e-09)
(0 2.44698407e-09 -2.870500543e-09)
(0 5.976288017e-09 -2.682271e-09)
(0 8.282099929e-09 -5.599828929e-09)
(0 9.364419806e-09 -4.799853368e-09)
(0 4.941025526e-09 -4.235164736e-10)
(0 -9.411477192e-11 2.823443158e-09)
(0 -3.388131789e-09 2.258754526e-09)
(0 -6.39980449e-09 -2.494041456e-09)
(0 -1162.132564 5993.238677)
(0 -3743.319753 6759.696734)
(0 -6932.696774 7933.919146)
(0 -10813.1369 9085.886025)
(0 -14581.71315 9543.678862)
(0 -16058.14019 7752.869457)
(0 -15731.2974 4091.26334)
(0 -7986.664808 306.6015611)
(0 -265.736453 211.766772)
(0 -125.9610808 170.7024304)
(0 -93.49001088 134.6116771)
(0 -69.28439458 103.0395586)
(0 -50.90869558 76.14737088)
(0 -36.79309718 54.1456308)
(0 -25.96355362 36.97559939)
(0 -17.78378424 24.22971996)
(0 -11.77337068 15.23336593)
(0 -7.512519503 9.191279408)
(0 -4.612861099 5.325005662)
(0 -2.723397009 2.96432914)
(0 -1.54566616 1.58683228)
(0 -0.843456411 0.817503498)
(0 -0.4427323652 0.4056640564)
(0 -0.2236725891 0.1940563348)
(0 -0.1088386859 0.08956474932)
(0 -0.05104886661 0.03991653846)
(0 -0.02309773598 0.01719202807)
(0 -0.01008993317 0.007161499386)
(0 -0.004258916811 0.002887482613)
(0 -0.001738422234 0.001127716561)
(0 -0.0006867624552 0.0004269374515)
(0 -0.0002627820898 0.0001567906454)
(0 -9.74649284e-05 5.589335132e-05)
(0 -3.506678756e-05 1.935569105e-05)
(0 -1.224884934e-05 6.515095086e-06)
(0 -4.154508377e-06 2.131746641e-06)
(0 -1.365934742e-06 6.772969561e-07)
(0 -4.354690497e-07 2.102994578e-07)
(0 -1.365134767e-07 6.470390569e-08)
(0 -4.945731264e-08 2.17875697e-08)
(0 -2.301106173e-08 8.235042543e-09)
(0 -9.505591964e-09 4.611623824e-09)
(0 -2.258754526e-09 -9.411477192e-11)
(0 3.858705649e-09 -2.588156228e-09)
(0 9.458534578e-09 -2.964615315e-09)
(0 1.134083002e-08 -2.164639754e-09)
(0 7.623296525e-09 -2.44698407e-09)
(0 2.541098842e-09 1.458778965e-09)
(0 -4.89396814e-09 2.776385772e-09)
(0 -9.08207549e-09 -9.411477192e-11)
(0 -778.5586039 5130.912981)
(0 -2770.626658 5894.58871)
(0 -5751.935735 7104.931804)
(0 -9871.526208 8339.090724)
(0 -14816.54631 9100.165023)
(0 -18562.36492 8235.10114)
(0 -19603.70975 4512.700612)
(0 -9988.797712 439.0961501)
(0 -337.4157861 335.7172501)
(0 -169.3324093 283.3549437)
(0 -133.2797339 231.2882398)
(0 -104.8400708 181.5075536)
(0 -81.35338242 136.4953595)
(0 -61.57847548 98.21442045)
(0 -45.09716702 67.59555429)
(0 -31.78963361 44.51326301)
(0 -21.50674971 28.06672716)
(0 -13.9453837 16.9593439)
(0 -8.663597714 9.830184365)
(0 -5.158073412 5.471191095)
(0 -2.944842468 2.926851705)
(0 -1.613513207 1.506403465)
(0 -0.8492098344 0.7466478904)
(0 -0.4297407914 0.3567174845)
(0 -0.2093006908 0.1644200041)
(0 -0.09820387264 0.07317827029)
(0 -0.04443189064 0.03147535003)
(0 -0.01940322136 0.01309399514)
(0 -0.008185761836 0.005272645136)
(0 -0.003339118557 0.002056695899)
(0 -0.001318137802 0.0007777082415)
(0 -0.0005039694982 0.00028528512)
(0 -0.0001867670003 0.0001015916259)
(0 -6.713945482e-05 3.514363227e-05)
(0 -2.343217828e-05 1.181709782e-05)
(0 -7.943945553e-06 3.864305478e-06)
(0 -2.613096642e-06 1.228480118e-06)
(0 -8.339980513e-07 3.810707115e-07)
(0 -2.602273444e-07 1.155729399e-07)
(0 -8.460917995e-08 3.501069515e-08)
(0 -3.430483436e-08 1.397604363e-08)
(0 -1.571716691e-08 3.246959631e-09)
(0 -4.799853368e-09 7.058607894e-10)
(0 3.199902245e-09 -8.940903332e-10)
(0 8.61150163e-09 -3.294017017e-09)
(0 9.787936279e-09 -4.093992578e-09)
(0 8.61150163e-09 -4.282222122e-09)
(0 5.176312455e-09 -2.635213614e-09)
(0 -4.89396814e-09 6.588034034e-10)
(0 -9.129132876e-09 0)
(0 -398.456836 4674.58693)
(0 -1769.30093 5387.933528)
(0 -4488.19476 6662.528708)
(0 -8817.903678 8072.552402)
(0 -14685.70273 9085.194404)
(0 -20645.6046 8782.03062)
(0 -23527.30239 5443.869214)
(0 -12163.64817 684.8566824)
(0 -421.4776594 562.5524365)
(0 -230.3900912 489.1864343)
(0 -195.3374009 407.5256299)
(0 -164.0772748 324.0210861)
(0 -134.2018288 245.5807348)
(0 -105.6929024 177.4545806)
(0 -79.66471107 122.3555929)
(0 -57.31261137 80.59513759)
(0 -39.32728978 50.77979654)
(0 -25.7490623 30.64216646)
(0 -16.10101391 17.73067013)
(0 -9.626729668 9.849483243)
(0 -5.510453791 5.258519892)
(0 -3.023660226 2.701032793)
(0 -1.592418345 1.336117623)
(0 -0.8059004754 0.6371189717)
(0 -0.3923779002 0.2931247054)
(0 -0.1839935207 0.1302326252)
(0 -0.08318201108 0.0559226804)
(0 -0.03629263806 0.02322787172)
(0 -0.01529621615 0.009339521837)
(0 -0.006233359175 0.003638000862)
(0 -0.002458173234 0.001373859394)
(0 -0.0009388987055 0.0005033495642)
(0 -0.0003476064632 0.0001790387187)
(0 -0.0001248412215 6.186686295e-05)
(0 -4.352817613e-05 2.078138867e-05)
(0 -1.474312608e-05 6.789957277e-06)
(0 -4.849122451e-06 2.158334064e-06)
(0 -1.548423285e-06 6.676031346e-07)
(0 -4.826676078e-07 2.01782071e-07)
(0 -1.510071515e-07 5.83041012e-08)
(0 -5.477479726e-08 1.811709359e-08)
(0 -2.27757748e-08 3.764590877e-09)
(0 -6.352747104e-09 2.44698407e-09)
(0 -1.411721579e-10 -1.882295438e-10)
(0 6.258632332e-09 -2.305811912e-09)
(0 1.035262491e-08 -2.682271e-09)
(0 8.987960718e-09 -3.811648263e-09)
(0 7.482124367e-09 -4.846910754e-09)
(0 -2.21169714e-09 -1.882295438e-10)
(0 -9.693821507e-09 1.223492035e-09)
(0 -65.21200539 4564.947042)
(0 -782.6848806 5106.17801)
(0 -3067.316861 6376.108508)
(0 -7448.860512 8032.01115)
(0 -14107.0681 9474.467616)
(0 -22203.69011 9743.559984)
(0 -27700.88369 7015.229648)
(0 -14870.11449 1120.045972)
(0 -533.0860342 966.874301)
(0 -324.3592159 856.0303708)
(0 -298.4450821 720.5803079)
(0 -266.784966 575.8195445)
(0 -227.919888 437.0938009)
(0 -184.8036174 315.6414281)
(0 -141.95661 217.2209701)
(0 -103.3654299 142.7090158)
(0 -71.45972084 89.64973902)
(0 -46.9945101 53.93139174)
(0 -29.45628093 31.11138219)
(0 -17.63022365 17.23146762)
(0 -10.09329292 9.173790813)
(0 -5.535915476 4.699620603)
(0 -2.913123656 2.318993943)
(0 -1.472733709 1.103243256)
(0 -0.7161870374 0.5064891509)
(0 -0.3354058977 0.2245803527)
(0 -0.1514366441 0.0962580343)
(0 -0.06598637997 0.03991293236)
(0 -0.0277756326 0.0160227667)
(0 -0.011304781 0.006232086602)
(0 -0.004452789053 0.002350260107)
(0 -0.001698790174 0.0008599814458)
(0 -0.0006282497486 0.0003055240312)
(0 -0.0002253967849 0.0001054583313)
(0 -7.850917807e-05 3.538781304e-05)
(0 -2.65669531e-05 1.155028244e-05)
(0 -8.73535667e-06 3.66840558e-06)
(0 -2.79064416e-06 1.133800657e-06)
(0 -8.694793204e-07 3.4041313e-07)
(0 -2.682271e-07 9.91969696e-08)
(0 -8.889140208e-08 2.757562817e-08)
(0 -3.138727643e-08 6.917435736e-09)
(0 -8.799731174e-09 3.905763035e-09)
(0 -1.505836351e-09 -4.705738596e-11)
(0 6.117460175e-09 -4.235164736e-10)
(0 8.282099929e-09 -9.411477192e-11)
(0 6.540976648e-09 -4.093992578e-09)
(0 8.752673788e-09 -2.964615315e-09)
(0 1.270549421e-09 -1.270549421e-09)
(0 -1.030556752e-08 2.541098842e-09)
(0 142.774132 4820.357051)
(0 41.86053551 5087.133828)
(0 -1562.36162 6166.486597)
(0 -5719.544569 8001.712459)
(0 -12974.1539 9929.150644)
(0 -23104.84257 10880.23478)
(0 -32150.81641 8903.106352)
(0 -18212.00352 1857.008189)
(0 -685.493261 1669.475851)
(0 -476.6840843 1493.78765)
(0 -475.5482272 1262.070443)
(0 -447.5637818 1008.12659)
(0 -394.3799452 763.1982426)
(0 -325.5657332 549.0074744)
(0 -252.5971233 376.169435)
(0 -184.8838425 246.022941)
(0 -128.1049139 153.8709206)
(0 -84.28741913 92.17751962)
(0 -52.80093803 52.96586738)
(0 -31.56432105 29.22934651)
(0 -18.04230081 15.5093042)
(0 -9.878457096 7.920895901)
(0 -5.188795691 3.89755879)
(0 -2.618405267 1.849483376)
(0 -1.271040804 0.8470922007)
(0 -0.5942246373 0.3748003541)
(0 -0.2678494315 0.160328522)
(0 -0.1165279057 0.06635949662)
(0 -0.04897706185 0.026595344)
(0 -0.01990586582 0.01032848998)
(0 -0.00783027839 0.00388960414)
(0 -0.002983634828 0.00142138486)
(0 -0.001102129484 0.0005043630862)
(0 -0.0003949774396 0.0001738939818)
(0 -0.0001374361779 5.829092513e-05)
(0 -4.64625806e-05 1.900647819e-05)
(0 -1.526569835e-05 6.032427478e-06)
(0 -4.876368677e-06 1.862907795e-06)
(0 -1.517318353e-06 5.600299503e-07)
(0 -4.637505386e-07 1.621126946e-07)
(0 -1.469602163e-07 4.418688542e-08)
(0 -4.644563994e-08 1.17172891e-08)
(0 -1.331724023e-08 2.776385772e-09)
(0 -4.65868121e-09 6.117460175e-10)
(0 6.164517561e-09 6.117460175e-10)
(0 6.729206192e-09 -2.070524982e-09)
(0 6.117460175e-09 -2.258754526e-09)
(0 1.030556752e-08 1.694065895e-09)
(0 3.294017017e-09 -7.529181753e-10)
(0 -1.087025616e-08 -9.411477192e-10)
(0 201.5647722 5295.42835)
(0 563.4446651 5406.773877)
(0 -152.7382309 6077.021999)
(0 -3686.196465 7928.789783)
(0 -11228.54578 10336.28461)
(0 -23229.7344 12082.97397)
(0 -36724.11028 10950.08848)
(0 -22103.74499 3092.021417)
(0 -896.3065732 2867.494099)
(0 -731.7646246 2576.633152)
(0 -784.1061421 2173.430067)
(0 -765.6571661 1728.256271)
(0 -687.0390037 1300.766346)
(0 -571.832425 929.8900098)
(0 -444.9411434 633.2224956)
(0 -325.6639443 411.7191157)
(0 -225.3051422 256.1037879)
(0 -147.8995634 152.6569382)
(0 -92.40445405 87.32065354)
(0 -55.08678683 47.99065965)
(0 -31.40174353 25.36995875)
(0 -17.14766089 12.91364481)
(0 -8.98453618 6.335131454)
(0 -4.523200298 2.997975052)
(0 -2.19087006 1.369730507)
(0 -1.022169576 0.6046873826)
(0 -0.4598775016 0.2581407115)
(0 -0.199719558 0.1066453466)
(0 -0.08380663929 0.04266847208)
(0 -0.03401052081 0.01654484299)
(0 -0.01335989422 0.006221721084)
(0 -0.005084031275 0.002270620422)
(0 -0.001875740627 0.0008047301455)
(0 -0.0006714688989 0.0002771408982)
(0 -0.0002333966346 9.280441195e-05)
(0 -7.882549782e-05 3.023479399e-05)
(0 -2.587888001e-05 9.588742365e-06)
(0 -8.26299463e-06 2.960615438e-06)
(0 -2.570321478e-06 8.898081111e-07)
(0 -7.841642796e-07 2.535451955e-07)
(0 -2.392868076e-07 6.672737329e-08)
(0 -7.284483346e-08 1.830532314e-08)
(0 -1.981115949e-08 2.776385772e-09)
(0 -3.623418719e-09 2.21169714e-09)
(0 3.482246561e-09 1.082319877e-09)
(0 5.411599385e-09 -1.552893737e-09)
(0 1.025851014e-08 0)
(0 1.03996823e-08 2.117582368e-09)
(0 -1.505836351e-09 -4.705738596e-11)
(0 -8.61150163e-09 -3.623418719e-09)
(0 254.1196583 5811.871151)
(0 823.4541846 5875.358796)
(0 959.6542868 6236.698686)
(0 -1460.28196 7858.763885)
(0 -8819.969716 10714.37484)
(0 -22491.0387 13425.83044)
(0 -41141.76896 13340.45581)
(0 -26294.5979 5158.214104)
(0 -1200.881526 4875.252567)
(0 -1170.748117 4370.977395)
(0 -1323.925108 3663.325352)
(0 -1320.227503 2889.577526)
(0 -1192.746207 2156.608668)
(0 -993.1095833 1529.21807)
(0 -770.7680174 1033.481888)
(0 -562.0025502 667.337384)
(0 -387.1670914 412.5286852)
(0 -253.0705535 244.5294003)
(0 -157.4672166 139.1772551)
(0 -93.51501584 76.15169058)
(0 -53.11931564 40.09803863)
(0 -28.91328439 20.33842552)
(0 -15.10446545 9.946070013)
(0 -7.583806214 4.693464924)
(0 -3.664328473 2.138922384)
(0 -1.705814433 0.942094247)
(0 -0.7658914675 0.4013462964)
(0 -0.3320001451 0.1654962183)
(0 -0.1390775654 0.06610139815)
(0 -0.05635261682 0.02559109492)
(0 -0.02210450096 0.009609856637)
(0 -0.00840062572 0.003502529894)
(0 -0.003095609102 0.001239835818)
(0 -0.001106903126 0.0004265145467)
(0 -0.0003843422821 0.0001426770531)
(0 -0.0001296782502 4.644065186e-05)
(0 -4.253992396e-05 1.471762098e-05)
(0 -1.357539705e-05 4.543767073e-06)
(0 -4.224247423e-06 1.362028979e-06)
(0 -1.286831276e-06 3.9405855e-07)
(0 -3.822000888e-07 1.07902586e-07)
(0 -1.103495701e-07 2.978732531e-08)
(0 -2.9504981e-08 6.964493122e-09)
(0 -6.39980449e-09 2.164639754e-09)
(0 2.494041456e-09 -6.588034034e-10)
(0 5.741001087e-09 2.352869298e-10)
(0 9.693821507e-09 3.764590877e-10)
(0 1.016439537e-08 2.823443158e-10)
(0 -2.44698407e-09 -4.705738596e-11)
(0 -7.152722666e-09 -1.364664193e-09)
(0 265.0524168 6353.700173)
(0 988.2722003 6396.106863)
(0 1830.666858 6667.9948)
(0 791.4796931 7854.243561)
(0 -5661.47922 11110.63317)
(0 -20603.65343 15053.63611)
(0 -44991.72661 16575.9175)
(0 -30568.94823 8589.441479)
(0 -1683.543282 8174.391594)
(0 -1943.69184 7264.843558)
(0 -2265.506012 6022.26848)
(0 -2272.37385 4697.229585)
(0 -2047.398459 3468.595416)
(0 -1694.959205 2435.69756)
(0 -1306.821829 1631.791722)
(0 -946.6171468 1045.542007)
(0 -648.1131259 641.9166253)
(0 -421.2509935 378.2144445)
(0 -260.7821637 214.1265851)
(0 -154.1660033 116.6139841)
(0 -87.21500859 61.15060053)
(0 -47.2996295 30.90348885)
(0 -24.62949677 15.06373523)
(0 -12.33034793 7.087941898)
(0 -5.942240736 3.221816624)
(0 -2.759745664 1.415779059)
(0 -1.23647553 0.6018894041)
(0 -0.5349644562 0.2477249938)
(0 -0.2237117627 0.09877649445)
(0 -0.09050206228 0.03818215234)
(0 -0.03544845919 0.01431779926)
(0 -0.01345405205 0.005211720268)
(0 -0.004951756021 0.001842674013)
(0 -0.001768627711 0.0006332041384)
(0 -0.0006134705295 0.0002116045944)
(0 -0.0002067848358 6.881234489e-05)
(0 -6.777576479e-05 2.179039314e-05)
(0 -2.161858663e-05 6.72186524e-06)
(0 -6.720077059e-06 2.013303201e-06)
(0 -2.03833773e-06 5.866173734e-07)
(0 -6.036050897e-07 1.661125724e-07)
(0 -1.737829263e-07 4.517509052e-08)
(0 -4.733973027e-08 1.176434649e-08)
(0 -1.115260047e-08 2.588156228e-09)
(0 1.411721579e-09 -3.764590877e-10)
(0 6.39980449e-09 -9.411477192e-11)
(0 1.03996823e-08 1.505836351e-09)
(0 9.976165823e-09 7.529181753e-10)
(0 -3.152844859e-09 3.764590877e-10)
(0 -7.246837438e-09 -2.823443158e-10)
(0 296.5263476 6928.965131)
(0 1137.748811 7005.938591)
(0 2417.790985 7244.724504)
(0 2982.356408 8190.263067)
(0 -1620.577171 11502.21503)
(0 -17025.75436 16998.50106)
(0 -47605.96358 21064.54533)
(0 -34696.12381 14180.14632)
(0 -2525.479448 13466.87143)
(0 -3322.871231 11788.76888)
(0 -3891.53908 9625.278571)
(0 -3873.900567 7402.62135)
(0 -3454.278232 5397.919062)
(0 -2829.913277 3748.691052)
(0 -2160.92357 2487.234207)
(0 -1551.877647 1580.292343)
(0 -1054.494654 963.1607532)
(0 -680.8605937 563.8943893)
(0 -419.067677 317.4873537)
(0 -246.4910004 172.07107)
(0 -138.8298109 89.8504245)
(0 -75.00014969 45.23889071)
(0 -38.92001241 21.9792442)
(0 -19.42572482 10.3119122)
(0 -9.336491312 4.675188459)
(0 -4.325741653 2.049716576)
(0 -1.933945532 0.8695996333)
(0 -0.8351130547 0.3572457999)
(0 -0.3486204069 0.1422080128)
(0 -0.1408113121 0.05488737344)
(0 -0.05507493303 0.02055369045)
(0 -0.02087575101 0.007472200341)
(0 -0.007674125137 0.002638855102)
(0 -0.002737972545 0.0009058407978)
(0 -0.0009487340756 0.0003024213495)
(0 -0.0003194925927 9.825601011e-05)
(0 -0.0001046303566 3.108352101e-05)
(0 -3.335243993e-05 9.578577969e-06)
(0 -1.035944823e-05 2.874735708e-06)
(0 -3.134068962e-06 8.379979292e-07)
(0 -9.235482568e-07 2.380162582e-07)
(0 -2.64697796e-07 6.559799603e-08)
(0 -7.218603006e-08 1.736417542e-08)
(0 -1.849355268e-08 3.905763035e-09)
(0 -1.411721579e-10 1.411721579e-10)
(0 7.576239139e-09 1.411721579e-10)
(0 1.054085445e-08 1.129377263e-09)
(0 9.035018104e-09 -1.411721579e-09)
(0 -3.435189175e-09 0)
(0 -7.293894824e-09 4.705738596e-11)
(0 342.0258772 7528.966566)
(0 1304.031574 7628.133289)
(0 3014.991334 7916.67941)
(0 5048.970217 8745.679484)
(0 3146.758777 11652.5592)
(0 -11041.32313 19020.06442)
(0 -47810.08136 26880.0989)
(0 -38166.62213 23009.59201)
(0 -4074.920722 21710.49672)
(0 -5785.284698 18608.2251)
(0 -6651.653543 14907.57403)
(0 -6499.733359 11276.84861)
(0 -5701.328757 8106.557854)
(0 -4605.64406 5561.445077)
(0 -3475.220539 3651.67427)
(0 -2470.690601 2299.511504)
(0 -1664.511079 1390.829314)
(0 -1066.924393 808.9403066)
(0 -652.605483 452.878236)
(0 -381.8029325 244.2472469)
(0 -214.0471879 126.9951932)
(0 -115.1708098 63.70297075)
(0 -59.55647528 30.8489452)
(0 -29.63440367 14.43164525)
(0 -14.20443636 6.526330775)
(0 -6.56533449 2.854831397)
(0 -2.928946307 1.208728009)
(0 -1.262356077 0.4956672027)
(0 -0.5260701891 0.1969880178)
(0 -0.2121563847 0.07591880958)
(0 -0.08286363229 0.02839145087)
(0 -0.03136888735 0.01030906549)
(0 -0.01151811552 0.003636682267)
(0 -0.004105061464 0.001247100631)
(0 -0.001421055411 0.000415969363)
(0 -0.0004781226172 0.0001350277338)
(0 -0.0001564531969 4.267836679e-05)
(0 -4.982741898e-05 1.314129266e-05)
(0 -1.546061004e-05 3.947691165e-06)
(0 -4.675010123e-06 1.156905834e-06)
(0 -1.376005023e-06 3.30295792e-07)
(0 -3.944350091e-07 9.209130432e-08)
(0 -1.090319633e-07 2.54580458e-08)
(0 -2.84697185e-08 6.39980449e-09)
(0 -2.305811912e-09 2.023467596e-09)
(0 7.34095221e-09 -6.117460175e-10)
(0 8.84678856e-09 0)
(0 8.84678856e-09 -4.141049964e-09)
(0 -1.647008509e-09 -3.294017017e-10)
(0 -7.293894824e-09 0)
(0 395.6930698 8149.53209)
(0 1525.461655 8272.044992)
(0 3535.33718 8671.689875)
(0 6718.236201 9494.709179)
(0 8653.807763 12118.94457)
(0 -1798.214666 20529.23884)
(0 -43616.43599 33664.5496)
(0 -39865.72599 36335.27363)
(0 -6926.846351 34088.02051)
(0 -10125.79392 28453.83029)
(0 -11222.91557 22292.97409)
(0 -10674.91674 16551.99335)
(0 -9169.68177 11714.49341)
(0 -7284.796861 7932.244276)
(0 -5422.857143 5151.420281)
(0 -3812.722603 3213.977983)
(0 -2545.065851 1928.716534)
(0 -1618.811672 1114.310197)
(0 -983.7607367 620.2782307)
(0 -572.3740432 332.8889017)
(0 -319.374087 172.3504199)
(0 -171.1463977 86.13575053)
(0 -88.19133791 41.57832868)
(0 -43.74833925 19.39624723)
(0 -20.91330516 8.749674393)
(0 -9.643344419 3.818986818)
(0 -4.293109727 1.613789848)
(0 -1.846853046 0.660617373)
(0 -0.7683688001 0.262131448)
(0 -0.309407879 0.100882468)
(0 -0.1206846771 0.03767901016)
(0 -0.04563051962 0.01366557278)
(0 -0.01673608995 0.004815653073)
(0 -0.005958685496 0.001649803576)
(0 -0.002060806926 0.0005498020745)
(0 -0.0006927836359 0.0001783249052)
(0 -0.0002265167507 5.63210559e-05)
(0 -7.208311556e-05 1.733085879e-05)
(0 -2.234392917e-05 5.202382247e-06)
(0 -6.751464336e-06 1.524376961e-06)
(0 -1.988362786e-06 4.387160093e-07)
(0 -5.695355423e-07 1.223021461e-07)
(0 -1.578304725e-07 3.31754571e-08)
(0 -4.192813089e-08 8.470329473e-09)
(0 -7.199780052e-09 3.341074403e-09)
(0 5.552771543e-09 -9.882051051e-10)
(0 7.011550508e-09 -1.364664193e-09)
(0 8.658559016e-09 -2.588156228e-09)
(0 7.529181753e-10 -1.97641021e-09)
(0 -6.917435736e-09 8.940903332e-10)
(0 464.5387789 8752.462406)
(0 1826.189359 8919.283121)
(0 4237.655522 9447.384656)
(0 8496.224908 10562.37392)
(0 14181.28844 12967.52065)
(0 10504.2819 20747.47331)
(0 -32004.04657 40536.80363)
(0 -37743.15122 55248.75069)
(0 -11956.36406 51828.75808)
(0 -17580.33111 41945.92352)
(0 -18553.49048 32055.05612)
(0 -17078.21404 23322.89435)
(0 -14321.07783 16235.0702)
(0 -11168.71719 10844.08687)
(0 -8193.486832 6963.133469)
(0 -5693.394348 4303.463573)
(0 -3764.178865 2562.134549)
(0 -2375.362696 1470.399215)
(0 -1434.026779 813.8612905)
(0 -829.7307433 434.6687202)
(0 -460.800339 224.1114866)
(0 -245.942901 111.6026691)
(0 -126.2959786 53.70356092)
(0 -62.46305796 24.98450836)
(0 -29.78169678 11.24363843)
(0 -13.70121903 4.897196073)
(0 -6.087315752 2.065545256)
(0 -2.614014477 0.8441408881)
(0 -1.085805094 0.334454796)
(0 -0.4366088225 0.1285443257)
(0 -0.1700805275 0.04795261517)
(0 -0.06423224443 0.01737262697)
(0 -0.02353388482 0.006115901775)
(0 -0.008370912463 0.002093354826)
(0 -0.002892534035 0.0006970341884)
(0 -0.0009716036829 0.0002259079693)
(0 -0.0003174472904 7.130059829e-05)
(0 -0.0001009459985 2.19251655e-05)
(0 -3.126709187e-05 6.573963876e-06)
(0 -9.438723418e-06 1.925211774e-06)
(0 -2.77803278e-06 5.516066782e-07)
(0 -7.999755613e-07 1.531247339e-07)
(0 -2.229108373e-07 4.075169624e-08)
(0 -5.825704382e-08 1.035262491e-08)
(0 -1.17172891e-08 3.058730087e-09)
(0 2.682271e-09 -6.588034034e-10)
(0 7.246837438e-09 -1.788180666e-09)
(0 8.187985157e-09 1.411721579e-09)
(0 1.74112328e-09 -1.411721579e-09)
(0 -6.164517561e-09 1.505836351e-09)
(0 562.5137843 9275.244996)
(0 2220.383905 9510.108923)
(0 5178.427978 10190.78944)
(0 10238.37219 11718.39894)
(0 18838.90716 14448.57866)
(0 25771.06832 21699.43112)
(0 -9115.158611 45937.52772)
(0 -28573.77154 80077.30618)
(0 -20229.67353 75785.37687)
(0 -29899.49588 59277.81048)
(0 -29845.94473 44104.53909)
(0 -26494.90266 31413.8488)
(0 -21648.48925 21495.40875)
(0 -16556.73359 14158.9636)
(0 -11963.48044 8988.409883)
(0 -8213.721523 5503.014448)
(0 -5378.130209 3250.711972)
(0 -3367.08493 1853.359838)
(0 -2019.491231 1020.165249)
(0 -1162.123847 542.2983682)
(0 -642.4401381 278.4849411)
(0 -341.5543234 138.2022254)
(0 -174.8094986 66.30546226)
(0 -86.20826174 30.76746297)
(0 -41.00061745 13.81477267)
(0 -18.82143759 6.005086611)
(0 -8.346164911 2.528377904)
(0 -3.577943506 1.031675683)
(0 -1.483965363 0.4081875073)
(0 -0.5959100597 0.1566866175)
(0 -0.2318563758 0.05838510193)
(0 -0.08746723302 0.0211306485)
(0 -0.03201536214 0.00743200731)
(0 -0.01137755304 0.002541686683)
(0 -0.00392825383 0.0008456648008)
(0 -0.001318517179 0.0002738858447)
(0 -0.0004304995544 8.638884323e-05)
(0 -0.00013680975 2.654949481e-05)
(0 -4.234388289e-05 7.95443935e-06)
(0 -1.277377448e-05 2.326328932e-06)
(0 -3.760496884e-06 6.611562727e-07)
(0 -1.080484639e-06 1.825356001e-07)
(0 -3.005555241e-07 4.884556662e-08)
(0 -7.962109704e-08 1.176434649e-08)
(0 -1.821120837e-08 2.588156228e-09)
(0 7.999755613e-10 7.058607894e-10)
(0 9.129132876e-09 -3.764590877e-10)
(0 9.035018104e-09 7.999755613e-10)
(0 8.470329473e-10 4.705738596e-10)
(0 -7.10566528e-09 6.588034034e-10)
(0 699.4027065 9640.288043)
(0 2741.733804 9955.429092)
(0 6445.945535 10836.1856)
(0 12754.01413 12834.39546)
(0 24162.32062 16736.54028)
(0 41993.23095 24399.00383)
(0 26373.82849 48414.65261)
(0 -7895.302069 109717.8543)
(0 -32755.85976 105702.2884)
(0 -49261.16889 79764.47287)
(0 -46417.45216 57729.66167)
(0 -39687.34439 40236.48187)
(0 -31575.96303 27061.69765)
(0 -23675.71605 17580.00762)
(0 -16849.43598 11035.27444)
(0 -11431.09226 6694.223377)
(0 -7413.833474 3924.430238)
(0 -4605.909418 2223.373665)
(0 -2745.088248 1217.371652)
(0 -1571.411052 644.2436447)
(0 -864.8964818 329.5827519)
(0 -458.1223798 163.029865)
(0 -233.730741 77.99862962)
(0 -114.9537475 36.1058231)
(0 -54.54407314 16.17753719)
(0 -24.98761381 7.019146081)
(0 -11.06072668 2.950521037)
(0 -4.734204873 1.202188101)
(0 -1.96079416 0.4750400359)
(0 -0.7864112279 0.1821388244)
(0 -0.3056364966 0.06779901368)
(0 -0.115185339 0.02451481274)
(0 -0.04212284663 0.008614977618)
(0 -0.01495725502 0.002943984652)
(0 -0.005160334826 0.0009788266622)
(0 -0.001730879546 0.0003168087217)
(0 -0.0005647836404 9.986932553e-05)
(0 -0.0001793804024 3.067779223e-05)
(0 -5.549025775e-05 9.188189895e-06)
(0 -1.673205355e-05 2.684341525e-06)
(0 -4.92187317e-06 7.662354156e-07)
(0 -1.41223921e-06 2.119464664e-07)
(0 -3.936820909e-07 5.693943701e-08)
(0 -1.045144542e-07 1.421133056e-08)
(0 -2.272871742e-08 3.341074403e-09)
(0 -3.764590877e-10 1.694065895e-09)
(0 7.293894824e-09 2.352869298e-10)
(0 9.035018104e-09 -2.352869298e-10)
(0 1.599951123e-09 4.705738596e-11)
(0 -7.199780052e-09 -1.882295438e-10)
(0 877.6548329 9756.714791)
(0 3416.281458 10151.40187)
(0 8057.39435 11260.77316)
(0 16138.72687 13746.11468)
(0 30403.51552 18982.79264)
(0 57449.18065 28707.29365)
(0 76203.69185 52365.46835)
(0 28713.86427 140998.0209)
(0 -50183.05494 139235.0748)
(0 -77872.12263 101355.8841)
(0 -69373.93573 71370.42171)
(0 -57162.86668 48693.3313)
(0 -44304.9635 32202.9727)
(0 -32583.1568 20641.10155)
(0 -22849.26468 12817.54982)
(0 -15324.56573 7707.430895)
(0 -9848.979921 4486.022016)