/*--------------------------------*- C++ -*----------------------------------*\
  =========                 |
  \\      /  F ield         | OpenFOAM: The Open Source CFD Toolbox
   \\    /   O peration     | Website:  https://openfoam.org
    \\  /    A nd           | Version:  6
     \\/     M anipulation  |
\*---------------------------------------------------------------------------*/
FoamFile
{
    version     2.0;
    format      ascii;
    class       volVectorField;
    location    "0.15";
    object      Marangoni;
}
// * * * * * * * * * * * * * * * * * * * * * * * * * * * * * * * * * * * * * //

dimensions      [1 -2 -2 0 0 0 0];

internalField   nonuniform List<vector> 
2500
(
(-0 4.544521026e-12 -8.672028808e-11)
(-0 8.361901029e-12 -5.924547102e-11)
(-0 7.511488515e-12 -4.019971994e-11)
(-0 6.066592277e-12 -2.983168558e-11)
(-0 1.563840299e-11 -6.696073706e-11)
(-0 8.180442155e-12 -2.70291471e-11)
(-0 2.418187028e-07 -4.479035093e-07)
(-0 7.548607987e-06 -14.78059595)
(-0 2.49107594e-07 -7.384340458)
(-0 1.956638529e-09 -8.902770407e-09)
(-0 3.062139568e-14 -1.369273905e-13)
(-0 2.128241966e-14 -9.26544333e-14)
(-0 1.784902919e-14 -7.541184456e-14)
(-0 1.539241762e-14 -6.303206449e-14)
(-0 1.101171836e-14 -4.365159224e-14)
(-0 4.08125301e-15 -1.563442845e-14)
(-0 5.119283613e-15 -1.891064451e-14)
(-0 1.920182193e-15 -6.823827133e-15)
(-0 1.103378269e-15 -3.763637496e-15)
(-0 4.961621649e-16 -1.621203624e-15)
(-0 1.639323471e-16 -5.123022279e-16)
(-0 1.542934132e-16 -4.606658621e-16)
(-0 9.492989739e-17 -2.706211028e-16)
(-0 7.517751992e-17 -2.046000928e-16)
(-0 3.481291945e-17 -9.047421567e-17)
(-0 1.130919197e-17 -2.808190497e-17)
(-0 4.074288931e-18 -9.673987996e-18)
(-0 9.841007924e-19 -2.236526974e-18)
(-0 1.657727813e-19 -3.609982082e-19)
(-0 2.532997576e-19 -5.29182783e-19)
(-0 4.564820572e-20 -9.158465681e-20)
(-0 5.048521537e-20 -9.736541825e-20)
(-0 2.062725084e-20 -3.832571077e-20)
(-0 9.502789322e-21 -1.699757844e-20)
(-0 2.829927394e-21 -4.892254299e-21)
(-0 4.73902837e-22 -8.315550738e-22)
(-0 2.175210183e-22 -4.571580733e-22)
(-0 5.632901456e-23 -9.495462454e-23)
(-0 2.877900574e-23 -5.09442027e-24)
(-0 2.03447777e-24 3.259316428e-24)
(-0 0 0)
(-0 -0 0)
(-0 -0 0)
(-0 -0 0)
(-0 -0 -0)
(-0 -0 -0)
(-0 -0 -0)
(-0 0 -0)
(-0 0 -0)
(-0 0 -0)
(-0 8.617318763e-12 -7.468485874e-11)
(-0 1.060387124e-11 -3.374758475e-11)
(-0 2.519687114e-11 -5.481285213e-11)
(-0 1.005702252e-11 -1.72458743e-11)
(-0 5.543918541e-11 -7.783038899e-11)
(-0 4.525614858e-11 -4.895173887e-11)
(-0 5.569062241e-07 -3.467122784e-07)
(-0 2.051302206e-05 -14.5796989)
(-0 6.773158832e-07 -7.823242676)
(-0 2.560899873e-09 -4.333906038e-09)
(-0 2.249395907e-13 -3.783909903e-13)
(-0 1.577342208e-13 -2.634099803e-13)
(-0 9.971957371e-14 -1.651124517e-13)
(-0 4.936901992e-14 -8.086692606e-14)
(-0 2.412249735e-14 -3.894903412e-14)
(-0 3.59384638e-14 -5.693538863e-14)
(-0 8.996158818e-15 -1.391253669e-14)
(-0 3.383973173e-15 -5.082819399e-15)
(-0 2.855492903e-15 -4.146620054e-15)
(-0 1.594032046e-15 -2.229293803e-15)
(-0 8.659226591e-16 -1.162760446e-15)
(-0 3.05187463e-16 -3.926134079e-16)
(-0 5.173925851e-16 -6.367746705e-16)
(-0 2.301478225e-16 -2.707745691e-16)
(-0 1.795149793e-16 -2.018567462e-16)
(-0 6.655017137e-17 -7.153653516e-17)
(-0 1.95620121e-17 -2.011248825e-17)
(-0 8.204393633e-18 -8.074472304e-18)
(-0 2.385748369e-18 -2.249711958e-18)
(-0 1.169404974e-18 -1.057713572e-18)
(-0 3.996485538e-19 -3.470889171e-19)
(-0 2.429639563e-19 -2.028877528e-19)
(-0 1.466448394e-19 -1.17856354e-19)
(-0 5.038839798e-20 -3.900643585e-20)
(-0 2.820076025e-20 -2.111080039e-20)
(-0 4.250481448e-21 -3.099894717e-21)
(-0 1.024411313e-21 -7.266173267e-22)
(-0 3.158906751e-22 -1.742184935e-22)
(-0 1.323162733e-22 -5.24870826e-23)
(-0 2.192316506e-23 -6.576949517e-24)
(-0 0 0)
(-0 -0 0)
(-0 -0 0)
(-0 -0 0)
(-0 -0 0)
(-0 -0 -0)
(-0 -0 -0)
(-0 -0 -0)
(-0 0 -0)
(-0 0 -0)
(-0 5.057627621e-12 -2.964846915e-11)
(-0 2.11781841e-11 -4.52009806e-11)
(-0 1.422619175e-11 -2.034625577e-11)
(-0 4.307056528e-11 -4.799201668e-11)
(-0 1.518279562e-11 -1.372926419e-11)
(-0 6.985775315e-11 -4.795312108e-11)
(-0 3.917565153e-07 -1.570078435e-07)
(-0 3.315775611e-05 -16.10370211)
(-0 1.089889752e-06 -9.198416858)
(-0 2.613437787e-09 -3.251103868e-09)
(-0 5.445135162e-13 -6.940262321e-13)
(-0 2.150654866e-13 -2.802505488e-13)
(-0 2.68573555e-14 -3.557187906e-14)
(-0 1.636590004e-13 -2.184659797e-13)
(-0 1.288596219e-13 -1.71675256e-13)
(-0 1.150889507e-13 -1.515193604e-13)
(-0 6.16821281e-14 -7.95221421e-14)
(-0 3.387226322e-14 -4.243302079e-14)
(-0 1.520997076e-14 -1.840040593e-14)
(-0 9.093700398e-15 -1.057412604e-14)
(-0 6.110444805e-15 -6.806682165e-15)
(-0 4.026439758e-15 -4.287401318e-15)
(-0 2.319036822e-15 -2.357469984e-15)
(-0 1.16887182e-15 -1.133819243e-15)
(-0 3.014224136e-16 -2.790014485e-16)
(-0 1.446323046e-16 -1.278045778e-16)
(-0 3.212736408e-17 -2.712266049e-17)
(-0 9.501061522e-19 -7.670478267e-19)
(-0 2.699535926e-18 -2.086466604e-18)
(-0 8.197767234e-19 -6.072943256e-19)
(-0 6.257564453e-19 -4.4486082e-19)
(-0 5.369485114e-19 -3.667931014e-19)
(-0 4.055484967e-19 -2.664944765e-19)
(-0 9.200144962e-20 -5.824515327e-20)
(-0 5.102938655e-20 -3.115773009e-20)
(-0 2.125197292e-20 -1.25076869e-20)
(-0 3.356357556e-21 -1.888898179e-21)
(-0 7.799238874e-22 -3.86229474e-22)
(-0 1.986449522e-22 -1.011080487e-22)
(-0 9.518575964e-23 -5.16511874e-23)
(-0 8.237189363e-24 -4.292009194e-24)
(-0 -0 0)
(-0 -0 0)
(-0 -0 0)
(-0 -0 0)
(-0 -0 0)
(-0 0 -0)
(-0 0 -0)
(-0 -0 0)
(-0 0 -0)
(-0 1.711606099e-12 -8.500007564e-12)
(-0 1.457959163e-11 -2.613475362e-11)
(-0 2.484904785e-11 -2.946338019e-11)
(-0 1.566951156e-11 -1.424705665e-11)
(-0 6.154254565e-11 -4.532837727e-11)
(-0 2.306043178e-11 -1.258911412e-11)
(-0 5.821039043e-07 -1.81232485e-07)
(-0 4.662254974e-05 -19.46013763)
(-0 1.531782861e-06 -12.09549518)
(-0 4.464935325e-09 -5.349673289e-09)
(-0 3.928832098e-13 -4.963451588e-13)
(-0 3.143202099e-13 -4.133466076e-13)
(-0 6.471125581e-13 -8.712677073e-13)
(-0 4.092417967e-13 -5.54529217e-13)
(-0 1.707461991e-13 -2.292174902e-13)
(-0 8.854940417e-14 -1.162361829e-13)
(-0 5.337047811e-14 -6.780968846e-14)
(-0 2.561667176e-14 -3.126899961e-14)
(-0 6.271222111e-15 -7.316730458e-15)
(-0 1.255110324e-14 -1.395065058e-14)
(-0 5.185472283e-15 -5.480681247e-15)
(-0 2.666939431e-15 -2.678141731e-15)
(-0 3.080086543e-15 -2.938518614e-15)
(-0 1.705469527e-15 -1.546539205e-15)
(-0 1.049309907e-15 -9.051953622e-16)
(-0 2.474327828e-16 -2.032814357e-16)
(-0 1.556407704e-16 -1.219317159e-16)
(-0 6.98949143e-17 -5.228593998e-17)
(-0 1.4521549e-17 -1.038750617e-17)
(-0 5.392305109e-18 -3.693584652e-18)
(-0 4.170483635e-19 -2.739368309e-19)
(-0 1.84824379e-18 -1.165739642e-18)
(-0 8.233283382e-19 -4.993091239e-19)
(-0 8.905550837e-20 -5.199424783e-20)
(-0 3.451902211e-20 -1.9421297e-20)
(-0 3.870514223e-20 -2.098238461e-20)
(-0 1.059719355e-20 -5.525824224e-21)
(-0 2.037210882e-21 -1.016868689e-21)
(-0 4.273236908e-22 -2.296864838e-22)
(-0 1.463446178e-22 -8.376627953e-23)
(-0 6.471662316e-23 -2.783701325e-23)
(-0 2.968676747e-24 -8.182891032e-25)
(-0 -0 0)
(-0 -0 0)
(-0 -0 0)
(-0 -0 0)
(-0 -0 0)
(-0 0 -0)
(-0 0 -0)
(-0 0 0)
(-0 2.416206838e-13 -1.24587621e-12)
(-0 5.337555584e-12 -9.637087116e-12)
(-0 2.170115952e-11 -2.483184651e-11)
(-0 2.763357015e-11 -2.321711676e-11)
(-0 4.612576985e-11 -3.018731469e-11)
(-0 6.91651707e-11 -3.339132895e-11)
(-0 1.403077758e-06 -3.650824986e-07)
(-0 6.095569493e-05 -25.53803927)
(-0 2.016085482e-06 -17.63714999)
(-0 1.011716191e-08 -1.37123235e-08)
(-0 3.401276711e-13 -4.895932542e-13)
(-0 1.471450908e-12 -2.187793155e-12)
(-0 5.807748963e-13 -8.685197242e-13)
(-0 1.330240719e-13 -1.957276165e-13)
(-0 1.857885392e-13 -2.645504233e-13)
(-0 1.610787984e-13 -2.194381421e-13)
(-0 6.406738496e-14 -8.288772165e-14)
(-0 5.442354613e-14 -6.657970432e-14)
(-0 2.267115588e-14 -2.616934421e-14)
(-0 2.157124397e-14 -2.347813536e-14)
(-0 2.348462179e-14 -2.410872673e-14)
(-0 7.992251989e-15 -7.745923044e-15)
(-0 3.604779974e-15 -3.302798965e-15)
(-0 7.731012539e-16 -6.707029766e-16)
(-0 2.076944901e-16 -1.70906265e-16)
(-0 4.570551618e-16 -3.573672551e-16)
(-0 3.032193448e-16 -2.256804968e-16)
(-0 1.369530559e-16 -9.72001181e-17)
(-0 7.876092731e-17 -5.339620052e-17)
(-0 2.739722084e-17 -1.777175785e-17)
(-0 9.569637793e-18 -5.94884025e-18)
(-0 4.080817792e-18 -2.434728243e-18)
(-0 8.682370618e-19 -4.978849014e-19)
(-0 2.429997136e-19 -1.341209313e-19)
(-0 2.825457361e-20 -1.502761539e-20)
(-0 5.401692488e-20 -2.771617475e-20)
(-0 2.144901053e-20 -1.063479457e-20)
(-0 5.506340801e-21 -2.658830578e-21)
(-0 8.807620761e-22 -4.176841253e-22)
(-0 2.001005957e-22 -8.821228549e-23)
(-0 9.091684048e-23 -3.229694744e-23)
(-0 1.043188857e-23 -5.138094369e-24)
(-0 0 0)
(-0 -0 0)
(-0 -0 0)
(-0 -0 0)
(-0 -0 0)
(-0 -0 -0)
(-0 0 -0)
(-0 0 0)
(-0 5.839287452e-14 -3.847419383e-13)
(-0 2.045569218e-12 -4.351215796e-12)
(-0 1.213904103e-11 -1.499251332e-11)
(-0 2.393240979e-11 -2.021571775e-11)
(-0 1.156475079e-11 -7.102819421e-12)
(-0 6.506913201e-11 -2.886785728e-11)
(-0 2.256803766e-06 -5.19957505e-07)
(-0 7.62325425e-05 -36.57341189)
(-0 2.566240209e-06 -27.96032403)
(-0 1.727029745e-08 -2.891083132e-08)
(-0 2.593435749e-12 -4.499445601e-12)
(-0 1.527641949e-12 -2.644249225e-12)
(-0 4.872955516e-13 -8.174571245e-13)
(-0 2.266350454e-13 -3.614242022e-13)
(-0 1.711566245e-13 -2.565173979e-13)
(-0 1.357995683e-13 -1.901359603e-13)
(-0 1.88434822e-13 -2.458927584e-13)
(-0 9.222889101e-14 -1.12154622e-13)
(-0 1.025996787e-14 -1.164082698e-14)
(-0 1.306993037e-14 -1.386257952e-14)
(-0 1.421457285e-14 -1.412700829e-14)
(-0 1.93844567e-14 -1.809676769e-14)
(-0 7.448821878e-15 -6.548887714e-15)
(-0 4.689739976e-16 -3.892655831e-16)
(-0 1.099483966e-15 -8.636791944e-16)
(-0 6.941767568e-16 -5.172532041e-16)
(-0 5.020459075e-16 -3.556303065e-16)
(-0 1.403074743e-16 -9.468008169e-17)
(-0 9.609307268e-17 -6.189290975e-17)
(-0 5.708096687e-17 -3.515675844e-17)
(-0 2.982509303e-17 -1.759611514e-17)
(-0 1.073087701e-17 -6.074201531e-18)
(-0 1.962355341e-18 -1.067368639e-18)
(-0 2.653607948e-19 -1.388946559e-19)
(-0 7.216695217e-20 -3.639287703e-20)
(-0 6.695159451e-20 -3.256673426e-20)
(-0 4.669573603e-20 -2.195074185e-20)
(-0 9.713727092e-21 -4.438329614e-21)
(-0 2.155646721e-21 -9.577174544e-22)
(-0 3.345289843e-22 -1.383614863e-22)
(-0 1.358907459e-22 -5.551520156e-23)
(-0 1.494438493e-23 -3.060898117e-24)
(-0 0 -0)
(-0 -0 0)
(-0 -0 0)
(-0 -0 0)
(-0 -0 0)
(-0 -0 0)
(-0 0 -0)
(-0 0 0)
(-0 2.649962361e-14 -3.107787009e-13)
(-0 9.314759347e-13 -2.835903513e-12)
(-0 8.622128639e-12 -1.279756649e-11)
(-0 2.208855074e-11 -2.022042489e-11)
(-0 2.451124512e-11 -1.516370577e-11)
(-0 7.027050244e-11 -2.98920452e-11)
(-0 3.262412994e-06 -7.558035527e-07)
(-0 9.283346166e-05 -57.04339111)
(-0 3.205933779e-06 -46.85335365)
(-0 2.403779312e-08 -5.106331256e-08)
(-0 3.663346212e-12 -7.641251064e-12)
(-0 1.272855081e-12 -2.513268207e-12)
(-0 9.027712944e-13 -1.651818023e-12)
(-0 3.232282907e-13 -5.426366037e-13)
(-0 3.726090717e-13 -5.722376551e-13)
(-0 3.614310187e-13 -5.082226206e-13)
(-0 4.119132487e-13 -5.318337763e-13)
(-0 1.927055473e-13 -2.293125078e-13)
(-0 8.587538925e-14 -9.456221929e-14)
(-0 4.631870862e-14 -4.738808353e-14)
(-0 4.319302737e-14 -4.121625141e-14)
(-0 4.260426007e-14 -3.805651231e-14)
(-0 1.37149765e-14 -1.150699419e-14)
(-0 3.275455209e-15 -2.589346616e-15)
(-0 2.235685373e-16 -1.67008271e-16)
(-0 9.292194132e-16 -6.576804096e-16)
(-0 9.938751734e-16 -6.681434178e-16)
(-0 4.180058216e-16 -2.675176291e-16)
(-0 7.700823404e-17 -4.701721338e-17)
(-0 6.474684716e-17 -3.778663816e-17)
(-0 6.479152447e-17 -3.620986627e-17)
(-0 1.948658648e-17 -1.044637386e-17)
(-0 3.853383733e-18 -1.984632095e-18)
(-0 7.497414674e-19 -3.715272691e-19)
(-0 1.462820145e-19 -6.983498353e-20)
(-0 1.111224502e-19 -5.117445214e-20)
(-0 7.467361326e-20 -3.323560637e-20)
(-0 1.442874531e-20 -6.22108468e-21)
(-0 4.620555139e-21 -1.931862241e-21)
(-0 1.311620553e-21 -5.059517855e-22)
(-0 1.86965782e-22 -6.183881163e-23)
(-0 3.783290488e-23 -6.266319648e-24)
(-0 2.31819746e-25 -8.995990141e-26)
(-0 0 0)
(-0 -0 0)
(-0 -0 0)
(-0 -0 0)
(-0 -0 0)
(-0 0 0)
(-0 0 -0)
(-0 9.682594929e-15 -6.773375644e-13)
(-0 1.763072756e-13 -1.149827025e-12)
(-0 5.123717923e-12 -1.06491797e-11)
(-0 3.153328302e-11 -3.400024332e-11)
(-0 6.450103937e-11 -4.331979017e-11)
(-0 1.394433946e-10 -6.119324185e-11)
(-0 4.340072991e-06 -1.100826405e-06)
(-0 0.0001134035378 -93.29337473)
(-0 4.001538857e-06 -80.53131161)
(-0 3.868262468e-08 -1.021639537e-07)
(-0 3.748695355e-12 -9.049748636e-12)
(-0 2.143468494e-12 -4.625881541e-12)
(-0 9.533972951e-13 -1.828218072e-12)
(-0 1.110245792e-12 -1.89614018e-12)
(-0 1.511337103e-12 -2.312486888e-12)
(-0 6.491274002e-13 -8.961496006e-13)
(-0 5.595548562e-13 -7.019507448e-13)
(-0 3.442907467e-13 -3.950911331e-13)
(-0 1.181379839e-13 -1.247697039e-13)
(-0 1.288559829e-13 -1.259353672e-13)
(-0 1.642463492e-13 -1.492762246e-13)
(-0 5.640673056e-14 -4.788322415e-14)
(-0 2.153505646e-14 -1.714217289e-14)
(-0 1.069196777e-14 -8.009102393e-15)
(-0 4.437323893e-15 -3.137934834e-15)
(-0 3.44671571e-16 -2.307732948e-16)
(-0 1.204160624e-15 -7.653663513e-16)
(-0 8.839467583e-16 -5.346434805e-16)
(-0 1.800882751e-16 -1.038813841e-16)
(-0 2.235743948e-16 -1.232457736e-16)
(-0 7.35000341e-17 -3.879268932e-17)
(-0 2.630371375e-17 -1.331511338e-17)
(-0 9.507450649e-18 -4.623336625e-18)
(-0 2.590740178e-18 -1.212091134e-18)
(-0 3.01799078e-19 -1.360281216e-19)
(-0 2.489416317e-19 -1.082251277e-19)
(-0 1.321533663e-19 -5.549483002e-20)
(-0 2.583741613e-20 -1.049687376e-20)
(-0 7.563940807e-21 -2.96058879e-21)
(-0 2.486514165e-21 -9.191479927e-22)
(-0 3.324175018e-22 -1.032736264e-22)
(-0 3.4532631e-23 -7.581600189e-24)
(-0 1.608898237e-24 -7.265992037e-25)
(-0 0 0)
(-0 -0 0)
(-0 -0 0)
(-0 -0 0)
(-0 -0 0)
(-0 -0 0)
(-0 0 -0)
(-0 -1.170079568e-14 -3.947571831e-13)
(-0 -1.998816363e-15 -2.429107485e-13)
(-0 9.801383735e-13 -3.867613347e-12)
(-0 2.677064574e-11 -3.744979245e-11)
(-0 1.179490199e-10 -9.026606511e-11)
(-0 1.36005958e-10 -6.404695861e-11)
(-0 2.976923659e-06 -8.248178979e-07)
(-0 0.0001421675694 -154.6832397)
(-0 5.011138715e-06 -139.0578344)
(-0 8.198021061e-08 -2.573463168e-07)
(-0 4.610552813e-12 -1.223479545e-11)
(-0 1.901237832e-12 -4.282138298e-12)
(-0 2.033004438e-12 -3.93396645e-12)
(-0 2.368588668e-12 -3.993948798e-12)
(-0 7.248791501e-13 -1.079434216e-12)
(-0 7.023547178e-13 -9.345660786e-13)
(-0 7.778977701e-13 -9.343100965e-13)
(-0 4.034124892e-13 -4.411536858e-13)
(-0 1.610102611e-13 -1.615052536e-13)
(-0 1.358071729e-13 -1.257546923e-13)
(-0 2.157551528e-13 -1.854558311e-13)
(-0 1.482960356e-13 -1.189032334e-13)
(-0 3.873063733e-14 -2.909106706e-14)
(-0 1.741162773e-14 -1.229792332e-14)
(-0 5.368736685e-15 -3.577849395e-15)
(-0 1.531360898e-15 -9.65840834e-16)
(-0 2.579620192e-15 -1.544025274e-15)
(-0 1.284561759e-15 -7.314870048e-16)
(-0 8.833242556e-16 -4.796356234e-16)
(-0 3.172515255e-16 -1.646030146e-16)
(-0 4.699988923e-17 -2.334550484e-17)
(-0 2.59694635e-17 -1.237106675e-17)
(-0 1.699819125e-17 -7.778421328e-18)
(-0 4.608976691e-18 -2.029058216e-18)
(-0 1.032502149e-18 -4.378936538e-19)
(-0 4.064509854e-19 -1.662583257e-19)
(-0 2.514649394e-19 -9.936384243e-20)
(-0 5.532651198e-20 -2.113604309e-20)
(-0 1.201717476e-20 -4.435252508e-21)
(-0 1.848199168e-21 -6.458629005e-22)
(-0 4.903946918e-22 -1.471814403e-22)
(-0 8.054219146e-23 -2.036041185e-23)
(-0 1.463578396e-24 -3.010196701e-25)
(-0 0 -0)
(-0 -0 -0)
(-0 -0 0)
(-0 -0 0)
(-0 -0 -0)
(-0 -0 0)
(-0 0 0)
(-0 -1.461609566e-14 -3.836805019e-13)
(-0 -3.975364701e-14 -3.812987283e-13)
(-0 4.244926958e-15 -1.687319194e-13)
(-0 5.933062072e-12 -1.276012165e-11)
(-0 1.171671135e-10 -1.078536997e-10)
(-0 2.877795651e-10 -1.496884067e-10)
(-0 6.17210856e-05 -2.066750314e-05)
(-0 0.0002134996745 -257.566203)
(-0 6.720324781e-06 -238.857844)
(-0 1.825955225e-07 -6.453237505e-07)
(-0 5.51038726e-12 -1.52727926e-11)
(-0 1.266125245e-12 -2.857733151e-12)
(-0 4.513074424e-12 -8.544069579e-12)
(-0 2.764007237e-12 -4.494467138e-12)
(-0 7.042882164e-13 -1.002262609e-12)
(-0 1.387281822e-12 -1.753775735e-12)
(-0 8.515630019e-13 -9.679213944e-13)
(-0 5.817297491e-13 -6.004122712e-13)
(-0 4.620221044e-13 -4.365817364e-13)
(-0 4.159762463e-13 -3.623736234e-13)
(-0 3.394948945e-13 -2.742698028e-13)
(-0 9.898767208e-14 -7.454246586e-14)
(-0 4.857863586e-14 -3.425183963e-14)
(-0 5.403425233e-14 -3.581210681e-14)
(-0 8.928686008e-15 -5.581931407e-15)
(-0 1.475218818e-15 -8.726553211e-16)
(-0 5.903533192e-15 -3.313634455e-15)
(-0 3.371297352e-15 -1.800099585e-15)
(-0 1.074795062e-15 -5.47182757e-16)
(-0 1.631712414e-16 -7.937266852e-17)
(-0 3.258204267e-17 -1.517273107e-17)
(-0 8.541194061e-18 -3.81445746e-18)
(-0 2.168695641e-17 -9.303661644e-18)
(-0 1.070272603e-17 -4.417197864e-18)
(-0 2.206621763e-18 -8.773633152e-19)
(-0 1.015835033e-18 -3.896197175e-19)
(-0 4.173538957e-19 -1.546326064e-19)
(-0 7.811656315e-20 -2.798729455e-20)
(-0 9.020107667e-21 -3.122293982e-21)
(-0 2.555839314e-21 -8.262464642e-22)
(-0 8.460942991e-22 -2.359911655e-22)
(-0 6.956398572e-23 -1.750377851e-23)
(-0 0 -0)
(-0 0 -0)
(-0 -0 -0)
(-0 -0 0)
(-0 -0 -0)
(-0 -0 -0)
(-0 0 0)
(-0 0 0)
(-0 -1.286967536e-15 -2.941976304e-14)
(-0 -6.14586003e-14 -4.383091137e-13)
(-0 -8.34634845e-15 -5.423187325e-14)
(-0 1.6174853e-13 -8.702631423e-13)
(-0 1.326628465e-11 -1.611488472e-11)
(-0 4.600744905e-10 -2.74633952e-10)
(-0 0.000223108597 -0.0001947801422)
(-0 0.0002299155034 -429.698188)
(-0 9.562369761e-06 -406.1214829)
(-0 2.492733119e-07 -9.332076114e-07)
(-0 4.787049247e-12 -1.32450019e-11)
(-0 4.047930875e-12 -8.859186195e-12)
(-0 1.045520415e-11 -1.890308208e-11)
(-0 2.712496055e-12 -4.176563344e-12)
(-0 6.82053438e-13 -9.144833586e-13)
(-0 1.158165756e-12 -1.375169989e-12)
(-0 1.864210697e-12 -1.986229117e-12)
(-0 1.111031575e-12 -1.073481449e-12)
(-0 1.665094368e-12 -1.471619812e-12)
(-0 1.025022462e-12 -8.346611206e-13)
(-0 3.451462824e-14 -2.60526788e-14)
(-0 1.567483439e-13 -1.102557627e-13)
(-0 1.286441694e-13 -8.470608227e-14)
(-0 6.247048737e-14 -3.8659789e-14)
(-0 2.769992635e-14 -1.616804014e-14)
(-0 3.458193461e-14 -1.909808807e-14)
(-0 1.272387678e-14 -6.667291309e-15)
(-0 3.320418906e-15 -1.655085907e-15)
(-0 7.488017617e-16 -3.558755941e-16)
(-0 8.179276371e-17 -3.714217846e-17)
(-0 5.676900617e-17 -2.467886174e-17)
(-0 5.179079657e-17 -2.159237313e-17)
(-0 1.635223212e-17 -6.548964536e-18)
(-0 1.694198871e-17 -6.527789028e-18)
(-0 3.110899912e-18 -1.154781015e-18)
(-0 1.871488998e-18 -6.701868117e-19)
(-0 4.807773412e-19 -1.663278564e-19)
(-0 1.066688396e-19 -3.570080803e-20)
(-0 1.490010953e-20 -4.803956904e-21)
(-0 5.11934458e-21 -1.567510476e-21)
(-0 1.541876896e-21 -4.352840014e-22)
(-0 1.051181448e-22 -2.829238899e-23)
(-0 0 -0)
(-0 0 -0)
(-0 -0 0)
(-0 -0 -0)
(-0 -0 -0)
(-0 -0 -0)
(-0 0 -0)
(-0 0 0)
(-0 -5.904725954e-18 -1.414717107e-16)
(-0 -1.754297057e-14 -1.135036107e-13)
(-0 -1.437726471e-14 -5.235797358e-14)
(-0 -7.523281058e-15 -7.466725962e-14)
(-0 1.034659667e-12 -2.030345915e-12)
(-0 5.665017988e-10 -4.138947488e-10)
(-0 0.0001899706028 -0.0001254121582)
(-0 0.0001081614371 -715.5632677)
(-0 1.427173092e-05 -680.9825248)
(-0 3.267975457e-07 -1.223565254e-06)
(-0 4.121287568e-12 -1.095477571e-11)
(-0 1.48145701e-11 -3.062162776e-11)
(-0 4.686694688e-12 -7.939550769e-12)
(-0 9.941679793e-12 -1.428572479e-11)
(-0 3.435998791e-12 -4.290223701e-12)
(-0 2.023615356e-12 -2.234980527e-12)
(-0 3.800152926e-12 -3.763635268e-12)
(-0 3.615510029e-12 -3.245976238e-12)
(-0 2.556918395e-12 -2.099365626e-12)
(-0 2.101984356e-12 -1.589900352e-12)
(-0 8.265769085e-13 -5.795235163e-13)
(-0 3.216251471e-13 -2.101251106e-13)
(-0 2.252375248e-13 -1.377513785e-13)
(-0 1.653674016e-13 -9.505450047e-14)
(-0 1.364528959e-13 -7.397946618e-14)
(-0 5.203578256e-14 -2.669354651e-14)
(-0 4.544149771e-15 -2.211879591e-15)
(-0 5.147916119e-15 -2.383712913e-15)
(-0 1.693616767e-15 -7.477517633e-16)
(-0 6.797631549e-16 -2.867721633e-16)
(-0 2.067948387e-16 -8.352105612e-17)
(-0 7.216246051e-17 -2.795224182e-17)
(-0 2.050340683e-17 -7.629438378e-18)
(-0 2.342000542e-17 -8.384390888e-18)
(-0 7.604176796e-18 -2.622773942e-18)
(-0 2.905170607e-18 -9.667105123e-19)
(-0 6.240745601e-19 -2.006338529e-19)
(-0 1.346385381e-19 -4.186081423e-20)
(-0 2.594232779e-20 -7.771709147e-21)
(-0 7.089575806e-21 -2.040020388e-21)
(-0 7.824932151e-22 -2.152881669e-22)
(-0 0 -0)
(-0 0 -0)
(-0 0 -0)
(-0 -0 0)
(-0 -0 0)
(-0 -0 -0)
(-0 -0 -0)
(-0 0 -0)
(-0 0 0)
(-0 -4.678908619e-22 -1.092761654e-20)
(-0 -1.740059882e-14 -1.071088109e-13)
(-0 -3.900574533e-14 -1.16854715e-13)
(-0 -3.741918602e-14 -1.02759105e-13)
(-0 5.376341908e-13 -3.814766098e-12)
(-0 1.129527879e-11 -1.12769241e-11)
(-0 1.689936119e-06 -7.478128372e-07)
(-0 0.0001579038477 -1181.364545)
(-0 2.140521651e-05 -1121.936165)
(-0 1.295322191e-07 -4.595714852e-07)
(-0 1.307288777e-11 -3.233262308e-11)
(-0 1.729729975e-11 -3.305168304e-11)
(-0 4.345990275e-12 -6.791040899e-12)
(-0 4.499578849e-12 -5.960148435e-12)
(-0 1.04099368e-11 -1.198130377e-11)
(-0 1.240041501e-11 -1.262684481e-11)
(-0 6.322935148e-12 -5.774996137e-12)
(-0 2.248515533e-12 -1.862146856e-12)
(-0 5.081420462e-12 -3.8495125e-12)
(-0 2.837782009e-12 -1.980906732e-12)
(-0 2.082081349e-12 -1.347451586e-12)
(-0 7.483765086e-13 -4.513858204e-13)
(-0 6.326368025e-13 -3.57249858e-13)
(-0 4.358968447e-13 -2.313787198e-13)
(-0 8.090789766e-14 -4.051202476e-14)
(-0 2.997115903e-14 -1.420084814e-14)
(-0 3.560223674e-14 -1.600773231e-14)
(-0 1.146682487e-14 -4.905037998e-15)
(-0 3.588520596e-15 -1.46374009e-15)
(-0 9.569955856e-16 -3.730113378e-16)
(-0 2.759394286e-16 -1.029737969e-16)
(-0 7.230261181e-17 -2.587840288e-17)
(-0 3.499075906e-17 -1.203142491e-17)
(-0 1.151073185e-17 -3.808050742e-18)
(-0 8.561261016e-18 -2.728867802e-18)
(-0 1.610221994e-18 -4.951780125e-19)
(-0 2.064125335e-19 -6.131768571e-20)
(-0 1.150181535e-19 -3.303046786e-20)
(-0 4.832285358e-21 -1.340864119e-21)
(-0 1.283977783e-21 -3.433005689e-22)
(-0 5.752001496e-22 -1.482262376e-22)
(-0 0 -0)
(-0 0 -0)
(-0 0 -0)
(-0 0 -0)
(-0 -0 -0)
(-0 -0 -0)
(-0 -0 0)
(-0 0 -0)
(-0 0 -0)
(-0 -1.74454348e-32 -3.838475966e-31)
(-0 -3.482946053e-15 -2.036752235e-14)
(-0 -4.675743888e-14 -1.227558879e-13)
(-0 -1.319761951e-13 -2.285828541e-13)
(-0 -1.435100739e-12 -5.314576116e-12)
(-0 9.279969344e-12 -1.598525556e-11)
(-0 1.448776684e-06 -8.145841986e-07)
(-0 0.0002912595852 -1917.043552)
(-0 3.165491753e-05 -1808.80097)
(-0 5.679180646e-08 -1.826611954e-07)
(-0 1.69559711e-11 -3.799953881e-11)
(-0 2.694814341e-11 -4.675194724e-11)
(-0 1.868998575e-11 -2.657346294e-11)
(-0 6.135527085e-12 -7.408460171e-12)
(-0 1.098966215e-11 -1.154709465e-11)
(-0 1.49291165e-11 -1.389408462e-11)
(-0 1.050818329e-11 -8.77997449e-12)
(-0 4.961683871e-12 -3.761752684e-12)
(-0 6.909091252e-12 -4.79435099e-12)
(-0 6.960452089e-12 -4.452520003e-12)
(-0 4.091970644e-12 -2.427661519e-12)
(-0 3.198136295e-12 -1.768853907e-12)
(-0 4.157715752e-13 -2.15349432e-13)
(-0 3.98659932e-13 -1.941331611e-13)
(-0 1.754268245e-13 -8.059692175e-14)
(-0 9.135062144e-14 -3.972028818e-14)
(-0 2.56614312e-14 -1.058949469e-14)
(-0 7.024389955e-15 -2.757998508e-15)
(-0 1.170716112e-15 -4.38353768e-16)
(-0 8.563587948e-17 -3.064262809e-17)
(-0 2.868207944e-17 -9.826778337e-18)
(-0 4.324259114e-17 -1.421047989e-17)
(-0 3.084486187e-17 -9.738309355e-18)
(-0 1.86008686e-17 -5.650564187e-18)
(-0 1.305590802e-17 -3.821502593e-18)
(-0 3.680652876e-18 -1.039405786e-18)
(-0 6.802258492e-19 -1.855465992e-19)
(-0 2.98582776e-19 -7.874341983e-20)
(-0 4.206858908e-20 -1.074117871e-20)
(-0 6.317777374e-21 -1.563335051e-21)
(-0 1.717211468e-21 -4.120977561e-22)
(-0 0 -0)
(-0 0 -0)
(-0 0 -0)
(-0 0 -0)
(-0 -0 0)
(-0 -0 0)
(-0 -0 0)
(-0 0 0)
(-0 0 -0)
(-0 -1.145868143e-27 -2.359002996e-26)
(-0 -4.678351659e-17 -2.536149646e-16)
(-0 -9.52648697e-15 -2.336266363e-14)
(-0 -6.662654844e-14 -9.415119557e-14)
(-0 -1.843273692e-12 -2.581312905e-12)
(-0 1.596854541e-12 -1.822430784e-11)
(-0 1.587750745e-06 -1.225565048e-06)
(-0 0.00030483375 -3027.40297)
(-0 5.064203376e-05 -2840.145793)
(-0 1.321977436e-07 -3.714657527e-07)
(-0 8.200803986e-11 -1.628911092e-10)
(-0 1.831108426e-11 -2.83908712e-11)
(-0 3.923935114e-11 -5.012679752e-11)
(-0 2.784396048e-11 -3.031715692e-11)
(-0 2.398851512e-11 -2.278667123e-11)
(-0 3.237081391e-11 -2.728599821e-11)
(-0 7.759802397e-12 -5.880285381e-12)
(-0 1.238593182e-11 -8.525436907e-12)
(-0 1.017234313e-11 -6.413514205e-12)
(-0 1.093357418e-11 -6.358568863e-12)
(-0 3.207729376e-12 -1.73096414e-12)
(-0 2.143058649e-12 -1.078517683e-12)
(-0 1.127258297e-12 -5.314249455e-13)
(-0 1.378346675e-13 -6.110712897e-14)
(-0 1.679243778e-13 -7.025223249e-14)
(-0 8.087941949e-14 -3.202842411e-14)
(-0 7.287464957e-14 -2.739229643e-14)
(-0 2.278755556e-14 -8.150650706e-15)
(-0 6.74032718e-15 -2.299361205e-15)
(-0 2.445610796e-15 -7.973489447e-16)
(-0 8.723559871e-16 -2.723439867e-16)
(-0 3.338463344e-16 -9.997598184e-17)
(-0 8.179859604e-17 -2.353551091e-17)
(-0 7.884366095e-17 -2.182856089e-17)
(-0 2.884305524e-17 -7.694614744e-18)
(-0 1.233066223e-17 -3.173782062e-18)
(-0 2.186438338e-18 -5.436056063e-19)
(-0 4.733404338e-19 -1.137982343e-19)
(-0 1.254777335e-19 -2.921343466e-20)
(-0 2.162871581e-20 -4.883040074e-21)
(-0 3.786558967e-21 -8.355334792e-22)
(-0 5.425031855e-22 -1.164980723e-22)
(-0 0 -0)
(-0 0 -0)
(-0 0 -0)
(-0 -0 0)
(-0 -0 0)
(-0 -0 0)
(-0 -0 0)
(-0 0 -0)
(-0 -1.895514351e-24 -3.570111411e-23)
(-0 -1.735257287e-20 -8.472926338e-20)
(-0 -1.354367583e-16 -3.018836216e-16)
(-0 -4.987644139e-14 -6.199621395e-14)
(-0 -9.050555392e-13 -8.275063889e-13)
(-0 -8.490661751e-12 -1.677216271e-11)
(-0 1.511722848e-06 -1.914905554e-06)
(-0 0.0002941926969 -4603.416537)
(-0 8.470247617e-05 -4318.424202)
(-0 1.313029327e-06 -3.133830665e-06)
(-0 7.009896526e-11 -1.211047975e-10)
(-0 7.049122311e-11 -9.626181421e-11)
(-0 3.661969216e-11 -4.151185496e-11)
(-0 5.122363743e-11 -4.973234874e-11)
(-0 2.778801191e-11 -2.361413918e-11)
(-0 3.666949103e-11 -2.771597914e-11)
(-0 3.29863643e-11 -2.245145026e-11)
(-0 2.404820144e-11 -1.488558792e-11)
(-0 1.64722697e-11 -9.348123458e-12)
(-0 1.109627226e-11 -5.812674316e-12)
(-0 9.041430819e-13 -4.39709653e-13)
(-0 4.276531006e-12 -1.94048044e-12)
(-0 7.561919637e-13 -3.215309862e-13)
(-0 2.384406585e-13 -9.536850292e-14)
(-0 1.809027587e-13 -6.829353533e-14)
(-0 1.358311787e-13 -4.85472486e-14)
(-0 3.756080018e-14 -1.274443239e-14)
(-0 4.869295e-14 -1.572351824e-14)
(-0 8.727535703e-15 -2.688151909e-15)
(-0 2.966785773e-15 -8.734200256e-16)
(-0 5.844411061e-16 -1.647687898e-16)
(-0 3.125030685e-16 -8.451681575e-17)
(-0 1.278163744e-16 -3.321465643e-17)
(-0 1.570255035e-16 -3.92659933e-17)
(-0 4.148391541e-17 -9.996124563e-18)
(-0 1.46571074e-17 -3.407742956e-18)
(-0 6.105094613e-18 -1.371166896e-18)
(-0 9.737126487e-19 -2.114756169e-19)
(-0 1.994035929e-19 -4.192282878e-20)
(-0 3.868102942e-20 -7.889424896e-21)
(-0 9.762223928e-21 -1.938309379e-21)
(-0 9.105411858e-22 -1.742297423e-22)
(-0 0 -0)
(-0 0 -0)
(-0 0 -0)
(-0 -0 0)
(-0 -0 0)
(-0 -0 -0)
(-0 -0 0)
(-0 0 -0)
(-0 -3.148928672e-25 -5.190770244e-24)
(-0 -9.209775444e-24 -3.943733585e-23)
(-0 -1.043173818e-19 -2.052527557e-19)
(-0 -2.443829112e-14 -2.796670745e-14)
(-0 -1.042610482e-13 -7.995119277e-14)
(-0 -3.208672882e-11 -2.701715756e-11)
(-0 1.345669397e-06 -6.786221308e-06)
(-0 0.0004371321349 -6672.282022)
(-0 0.0001128963608 -6314.705159)
(-0 4.153551251e-06 -8.244490348e-06)
(-0 4.059295606e-11 -5.998293568e-11)
(-0 4.479893805e-11 -5.311360034e-11)
(-0 3.062204189e-11 -3.040404533e-11)
(-0 6.331352576e-11 -5.414174208e-11)
(-0 3.776174855e-11 -2.836978921e-11)
(-0 1.083472607e-10 -7.258670031e-11)
(-0 7.748129184e-12 -4.682979161e-12)
(-0 4.357480524e-11 -2.398386058e-11)
(-0 1.985073003e-11 -1.002727159e-11)
(-0 1.587445834e-11 -7.40734105e-12)
(-0 6.532554494e-12 -2.831583997e-12)
(-0 3.909375788e-12 -1.581757356e-12)
(-0 9.021664886e-13 -3.421747969e-13)
(-0 8.128927819e-13 -2.901035081e-13)
(-0 6.127534088e-13 -2.064504713e-13)
(-0 3.970296203e-13 -1.26667758e-13)
(-0 1.887579145e-13 -5.71790312e-14)
(-0 3.60649479e-14 -1.039852018e-14)
(-0 2.142116012e-14 -5.891900072e-15)
(-0 6.071236354e-15 -1.596263941e-15)
(-0 1.255997773e-15 -3.16262853e-16)
(-0 1.54573272e-16 -3.734032572e-17)
(-0 4.188832802e-16 -9.723373226e-17)
(-0 2.151930942e-16 -4.807038968e-17)
(-0 3.70413419e-17 -7.97373059e-18)
(-0 1.152960291e-17 -2.394828455e-18)
(-0 7.278965016e-18 -1.460598148e-18)
(-0 2.00731998e-18 -3.895207651e-19)
(-0 3.646611407e-19 -6.849928095e-20)
(-0 8.98178692e-20 -1.635650166e-20)
(-0 1.640335522e-20 -2.883710383e-21)
(-0 2.018964877e-21 -3.410968062e-22)
(-0 1.871650349e-22 -3.043931664e-23)
(-0 0 -0)
(-0 0 -0)
(-0 -0 -0)
(-0 -0 0)
(-0 -0 -0)
(-0 -0 -0)
(-0 0 -0)
(-0 -2.182124366e-27 -3.007111631e-26)
(-0 -3.731536451e-23 -1.354688865e-22)
(-0 -2.719387897e-22 -4.570763605e-22)
(-0 -4.148966618e-15 -4.174507389e-15)
(-0 -5.756396077e-14 -3.986736009e-14)
(-0 -1.757490422e-14 -1.021058568e-14)
(-0 -6.030858202e-05 -0.0001347474978)
(-0 0.003349316968 -9141.641449)
(-0 -6.213313802e-05 -8807.700489)
(-0 3.003778699e-05 -4.960999464e-05)
(-0 8.952787714e-11 -1.113410972e-10)
(-0 1.998622358e-10 -2.02618079e-10)
(-0 1.751178289e-10 -1.50074911e-10)
(-0 5.504356016e-11 -4.08697026e-11)
(-0 1.200715907e-10 -7.863515759e-11)
(-0 4.346811499e-11 -2.545433208e-11)
(-0 1.035660455e-11 -5.481877466e-12)
(-0 1.521354145e-11 -7.343536651e-12)
(-0 2.158207921e-11 -9.570569806e-12)
(-0 2.007977085e-11 -8.231832296e-12)
(-0 1.069563174e-11 -4.075529247e-12)
(-0 3.007804157e-12 -1.070316621e-12)
(-0 1.930981388e-12 -6.443563662e-13)
(-0 1.082653752e-12 -3.400325272e-13)
(-0 7.154624171e-13 -2.121916581e-13)
(-0 1.546893061e-13 -4.345065423e-14)
(-0 7.263837619e-14 -1.937570971e-14)
(-0 6.950364466e-14 -1.764856134e-14)
(-0 2.557078498e-14 -6.194675291e-15)
(-0 1.686317297e-14 -3.905425252e-15)