/*--------------------------------*- C++ -*----------------------------------*\
  =========                 |
  \\      /  F ield         | OpenFOAM: The Open Source CFD Toolbox
   \\    /   O peration     | Website:  https://openfoam.org
    \\  /    A nd           | Version:  6
     \\/     M anipulation  |
\*---------------------------------------------------------------------------*/
FoamFile
{
    version     2.0;
    format      ascii;
    class       volScalarField;
    location    "0.15";
    object      Num_divU;
}
// * * * * * * * * * * * * * * * * * * * * * * * * * * * * * * * * * * * * * //

dimensions      [0 0 -1 0 0 0 0];

internalField   nonuniform List<scalar> 
2500
(
3.089979133e-10
2.114457464e-09
1.62136591e-08
2.445238374e-08
3.096865411e-08
3.660737202e-08
4.917023502e-08
6.225145591e-08
4.074314641e-08
1.364406089e-23
-3.300168127e-17
-7.422029233e-17
-1.129960016e-16
-1.508012916e-16
-1.882294747e-16
-2.253884608e-16
-2.622621453e-16
-2.988084639e-16
-3.349800843e-16
-3.707286648e-16
-4.060053197e-16
-4.40760626e-16
-4.749451769e-16
-5.085093944e-16
-5.414037197e-16
-5.735785196e-16
-6.049841664e-16
-6.355712822e-16
-6.652910121e-16
-6.940949479e-16
-7.2193538e-16
-7.487653057e-16
-7.745385862e-16
-7.992101037e-16
-8.227359657e-16
-8.450736623e-16
-8.661822945e-16
-8.86022719e-16
-9.04557659e-16
-9.217519966e-16
-9.375727811e-16
-9.519895404e-16
-9.649743598e-16
-9.765021524e-16
-9.865507802e-16
-9.951014346e-16
-1.002138722e-15
-1.007650857e-15
-1.011628436e-15
-1.014057287e-15
1.186985797e-08
1.870255365e-08
3.73240436e-08
5.762126361e-08
7.974742878e-08
9.797763645e-08
1.134990603e-07
9.880091506e-08
3.744819235e-08
-6.592814259e-17
-1.381707204e-16
-2.094292796e-16
-2.774078161e-16
-3.443540721e-16
-4.107494799e-16
-4.766147587e-16
-5.418824094e-16
-6.064690557e-16
-6.702880774e-16
-7.332519308e-16
-7.952726083e-16
-8.562617861e-16
-9.161306097e-16
-9.747903174e-16
-1.032152165e-15
-1.088127719e-15
-1.142628912e-15
-1.195568517e-15
-1.246860169e-15
-1.296418664e-15
-1.344160227e-15
-1.390002655e-15
-1.433865651e-15
-1.475671169e-15
-1.515343677e-15
-1.552810548e-15
-1.588002241e-15
-1.620852698e-15
-1.651299739e-15
-1.679285067e-15
-1.704754888e-15
-1.727660212e-15
-1.747957035e-15
-1.765607244e-15
-1.780579249e-15
-1.792849749e-15
-1.802408026e-15
-1.809267088e-15
-1.813501766e-15
-8.005798435e-16
8.575840955e-09
1.816856261e-08
3.938262042e-08
6.532116625e-08
8.322889124e-08
9.587795335e-08
1.086884995e-07
1.008034348e-07
4.596375048e-08
-5.397839167e-17
-1.150542241e-16
-1.766027272e-16
-2.356459826e-16
-2.939454587e-16
-3.51814138e-16
-4.092384376e-16
-4.661523429e-16
-5.224819123e-16
-5.781514988e-16
-6.330848707e-16
-6.872054119e-16
-7.404360027e-16
-7.926991291e-16
-8.439173665e-16
-8.940134064e-16
-9.429101725e-16
-9.905308795e-16
-1.036799348e-15
-1.081640027e-15
-1.12497856e-15
-1.166741692e-15
-1.2068576e-15
-1.245256162e-15
-1.281869078e-15
-1.316630328e-15
-1.349476239e-15
-1.380345904e-15
-1.409181432e-15
-1.435928036e-15
-1.460534575e-15
-1.482953528e-15
-1.503141454e-15
-1.521059207e-15
-1.536672096e-15
-1.549950394e-15
-1.560869073e-15
-1.569407032e-15
-1.575540857e-15
-1.579216248e-15
-7.798936208e-16
1.034655892e-08
2.495971544e-08
4.452713237e-08
7.765332627e-08
1.021739926e-07
1.220133797e-07
1.393704551e-07
1.286284435e-07
6.120756254e-08
-5.311432734e-17
-1.129514444e-16
-1.734722985e-16
-2.316237069e-16
-2.890814785e-16
-3.461263579e-16
-4.027370382e-16
-4.58846667e-16
-5.143822181e-16
-5.692688206e-16
-6.234313292e-16
-6.767941072e-16
-7.292811449e-16
-7.808159691e-16
-8.313220346e-16
-8.807230801e-16
-9.289430147e-16
-9.759060531e-16
-1.021536914e-15
-1.065761188e-15
-1.108505301e-15
-1.149697026e-15
-1.189265535e-15
-1.227141605e-15
-1.263257975e-15
-1.297549372e-15
-1.329953044e-15
-1.360408835e-15
-1.388859513e-15
-1.415251004e-15
-1.439532649e-15
-1.461657368e-15
-1.481582013e-15
-1.499267415e-15
-1.514678528e-15
-1.527784557e-15
-1.538558228e-15
-1.546974719e-15
-1.553008157e-15
-1.556626641e-15
-7.779954608e-16
9.515150495e-09
3.401660787e-08
5.93209819e-08
9.968004308e-08
1.331236905e-07
1.635864892e-07
1.885232791e-07
1.713573154e-07
8.092071087e-08
-5.305698757e-17
-1.127693699e-16
-1.731847657e-16
-2.312487679e-16
-2.886270795e-16
-3.45595996e-16
-4.021328718e-16
-4.581705033e-16
-5.136360374e-16
-5.684547576e-16
-6.225512637e-16
-6.758500164e-16
-7.282750076e-16
-7.797497416e-16
-8.301976356e-16
-8.79542261e-16
-9.277074775e-16
-9.746175118e-16
-1.020197077e-15
-1.064371718e-15
-1.107067918e-15
-1.148213474e-15
-1.187737628e-15
-1.225571235e-15
-1.261647046e-15
-1.295899854e-15
-1.328266954e-15
-1.358688161e-15
-1.38710625e-15
-1.413467109e-15
-1.437719971e-15
-1.459817682e-15
-1.479716753e-15
-1.497377725e-15
-1.512765011e-15
-1.525846886e-15
-1.536595218e-15
-1.544984664e-15
-1.550991889e-15
-1.554595754e-15
-7.778545346e-16
8.4388047e-09
4.404093399e-08
8.195080528e-08
1.316062736e-07
1.751906039e-07
2.17334629e-07
2.524745826e-07
2.256532943e-07
1.00679632e-07
-5.305213751e-17
-1.127463643e-16
-1.731457004e-16
-2.311968836e-16
-2.885648542e-16
-3.45525701e-16
-4.020562795e-16
-4.580891283e-16
-5.135514277e-16
-5.683684016e-16
-6.224645199e-16
-6.757639939e-16
-7.281906542e-16
-7.796678219e-16
-8.301187609e-16
-8.794668111e-16
-9.276356231e-16
-9.745492885e-16
-1.020132409e-15
-1.064310432e-15
-1.107009805e-15
-1.148158289e-15
-1.187685032e-15
-1.225520867e-15
-1.261598514e-15
-1.295852849e-15
-1.328220989e-15
-1.358642769e-15
-1.387060888e-15
-1.413421106e-15
-1.437672597e-15
-1.459767923e-15
-1.479663532e-15
-1.497319523e-15
-1.512700034e-15
-1.525773022e-15
-1.536510148e-15
-1.54488664e-15
-1.550881286e-15
-1.554477191e-15
-7.778645175e-16
1.073643672e-08
5.629956685e-08
1.102771458e-07
1.673364321e-07
2.201600022e-07
2.743338068e-07
3.178754296e-07
2.798079933e-07
1.110726282e-07
-5.304566016e-17
-1.127271733e-16
-1.731142423e-16
-2.311554158e-16
-2.885156431e-16
-3.454717264e-16
-4.020001984e-16
-4.580328973e-16
-5.134969771e-16
-5.683175281e-16
-6.22418789e-16
-6.757246481e-16
-7.281586569e-16
-7.796439439e-16
-8.301034266e-16
-8.79460342e-16
-9.27638041e-16
-9.745604664e-16
-1.020152097e-15
-1.064338244e-15
-1.10704529e-15
-1.148200892e-15
-1.187734192e-15
-1.225576047e-15
-1.26165912e-15
-1.29591819e-15
-1.328290436e-15
-1.358715618e-15
-1.387136339e-15
-1.413498303e-15
-1.437750553e-15
-1.459845582e-15
-1.479739611e-15
-1.497392665e-15
-1.512768684e-15
-1.525835523e-15
-1.536565126e-15
-1.544933348e-15
-1.550920309e-15
-1.554511064e-15
-7.778737009e-16
1.61849835e-08
7.090390011e-08
1.405366993e-07
1.990455737e-07
2.558715951e-07
3.169048408e-07
3.597700295e-07
3.087589557e-07
1.002409564e-07
-5.303388584e-17
-1.126988177e-16
-1.730683146e-16
-2.310948465e-16
-2.884428105e-16
-3.453909341e-16
-4.019153576e-16
-4.579468444e-16
-5.13412217e-16
-5.6823613e-16
-6.223426604e-16
-6.756553527e-16
-7.280972284e-16
-7.795911268e-16
-8.300597401e-16
-8.794259582e-16
-9.27612996e-16
-9.745445858e-16
-1.020145031e-15
-1.064339589e-15
-1.10705448e-15
-1.148217361e-15
-1.187757336e-15
-1.225605119e-15
-1.261693511e-15
-1.295957201e-15
-1.328333373e-15
-1.35876177e-15
-1.38718489e-15
-1.413548474e-15
-1.437801388e-15
-1.459896145e-15
-1.47978884e-15
-1.497439426e-15
-1.512811814e-15
-1.525874022e-15
-1.536598158e-15
-1.5449607e-15
-1.550942646e-15
-1.554529999e-15
-7.778673654e-16
2.314069932e-08
8.53759534e-08
1.642891906e-07
2.170332595e-07
2.644724353e-07
3.172401247e-07
3.467394533e-07
2.779583744e-07
5.80666735e-08
-5.301681975e-17
-1.126605419e-16
-1.730057204e-16
-2.310121043e-16
-2.883417977e-16
-3.45277503e-16
-4.017949541e-16
-4.57823851e-16
-5.132897061e-16
-5.681167275e-16
-6.222285744e-16
-6.75548275e-16
-7.279984268e-16
-7.795013326e-16
-8.299793756e-16
-8.793551864e-16
-9.275517088e-16
-9.744924887e-16
-1.020101804e-15
-1.06430464e-15
-1.107027293e-15
-1.148197229e-15
-1.187743539e-15
-1.225597002e-15
-1.261690263e-15
-1.295958193e-15
-1.32833787e-15
-1.358769e-15
-1.387194201e-15
-1.413559026e-15
-1.437812394e-15
-1.459906768e-15
-1.479798224e-15
-1.497446688e-15
-1.512816172e-15
-1.525874793e-15
-1.536594903e-15
-1.544953463e-15
-1.550932001e-15
-1.554517115e-15
-7.778439959e-16
3.097283597e-08
8.85595892e-08
1.653473844e-07
2.065563737e-07
2.252728975e-07
2.4746744e-07
2.494212406e-07
1.527480795e-07
-1.399245008e-08
-5.299493578e-17
-1.126118151e-16
-1.729247601e-16
-2.30905805e-16
-2.882109224e-16
-3.451288558e-16
-4.016358491e-16
-4.576606571e-16
-5.131266602e-16
-5.679569901e-16
-6.220747064e-16
-6.754021216e-16
-7.278612577e-16
-7.793739411e-16
-8.298621105e-16
-8.792479428e-16
-9.274542978e-16
-9.744044989e-16
-1.020022658e-15
-1.064233826e-15
-1.106964054e-15
-1.148140841e-15
-1.187693241e-15
-1.225551984e-15
-1.261649806e-15
-1.295921492e-15
-1.328304226e-15
-1.358737704e-15
-1.387164559e-15
-1.413530315e-15
-1.43778395e-15
-1.45987785e-15
-1.479768149e-15
-1.4974148e-15
-1.512781914e-15
-1.525837703e-15
-1.53655483e-15
-1.54491054e-15
-1.550886716e-15
-1.554470332e-15
-7.778034928e-16
3.650258432e-08
7.5445294e-08
1.304251401e-07
1.483916064e-07
1.248224735e-07
9.520812087e-08
5.068006941e-08
-7.540861084e-08
-9.405237189e-08
-5.296848913e-17
-1.12549326e-16
-1.72820675e-16
-2.307719278e-16
-2.880470236e-16
-3.449420282e-16
-4.014348111e-16
-4.574540103e-16
-5.129202054e-16
-5.677547894e-16
-6.218796431e-16
-6.752161477e-16
-7.276855678e-16
-7.792091811e-16
-8.297084776e-16
-8.79105259e-16
-9.273219881e-16
-9.742819423e-16
-1.019909148e-15
-1.064128582e-15
-1.106866316e-15
-1.148049782e-15
-1.187607973e-15
-1.225471695e-15
-1.261573664e-15
-1.295848676e-15
-1.328234075e-15
-1.358669501e-15
-1.387097603e-15
-1.413464022e-15
-1.437717681e-15
-1.459811032e-15
-1.479700177e-15
-1.497345276e-15
-1.512710361e-15
-1.52576395e-15
-1.536478811e-15
-1.544832385e-15
-1.550806925e-15
-1.55438955e-15
-7.777460404e-16
3.449625774e-08
4.474317012e-08
5.130199434e-08
3.187784049e-08
-2.716516277e-08
-1.280527057e-07
-2.312394431e-07
-3.501180266e-07
-1.473931887e-07
-5.293671334e-17
-1.124657572e-16
-1.726836816e-16
-2.306003371e-16
-2.878427278e-16
-3.447116109e-16
-4.011876857e-16
-4.572002009e-16
-5.12667177e-16
-5.675078172e-16
-6.216420988e-16
-6.749899348e-16
-7.274716067e-16
-7.790078437e-16
-8.295196367e-16
-8.789284381e-16
-9.27156352e-16
-9.741265835e-16
-1.019763036e-15
-1.0639908e-15
-1.106735922e-15
-1.147925864e-15
-1.187489585e-15
-1.22535792e-15
-1.261463639e-15
-1.295741653e-15
-1.328129207e-15
-1.358566186e-15
-1.386995158e-15
-1.413361907e-15
-1.437615344e-15
-1.459707987e-15
-1.479596045e-15
-1.497239644e-15
-1.512603046e-15
-1.525654744e-15
-1.536367801e-15
-1.544719763e-15
-1.550693117e-15
-1.554275112e-15
-7.776720434e-16
2.18734816e-08
-4.714561856e-09
-6.174416155e-08
-1.292863307e-07
-2.131420181e-07
-3.791946659e-07
-5.072054611e-07
-5.163947943e-07
-1.623892955e-07
-5.28954283e-17
-1.123519115e-16
-1.725022919e-16
-2.303746847e-16
-2.875843818e-16
-3.444275408e-16
-4.00887706e-16
-4.568947749e-16
-5.123645906e-16
-5.672140145e-16
-6.213608809e-16
-6.747231628e-16
-7.272198628e-16
-7.787710069e-16
-8.292970984e-16
-8.787192338e-16
-9.269593596e-16
-9.739404046e-16
-1.019586489e-15
-1.063822632e-15
-1.106575031e-15
-1.147771175e-15
-1.18734011e-15
-1.225212693e-15
-1.261321709e-15
-1.295602225e-15
-1.327991541e-15
-1.358429568e-15
-1.386859082e-15
-1.413225759e-15
-1.43747873e-15
-1.459570507e-15
-1.479457388e-15
-1.497099541e-15
-1.512461323e-15
-1.525511443e-15
-1.536222933e-15
-1.544573657e-15
-1.550546055e-15
-1.554127656e-15
-7.775819164e-16
-3.466208448e-09
-6.717778462e-08
-1.820395215e-07
-3.025072108e-07
-4.032402548e-07
-5.497341251e-07
-6.466548775e-07
-3.555975926e-07
-1.86807455e-07
-5.283575247e-17
-1.121993726e-16
-1.722667845e-16
-2.300751217e-16
-2.872515344e-16
-3.440734529e-16
-4.005228915e-16
-4.565291383e-16
-5.120068705e-16
-5.668703421e-16
-6.210346358e-16
-6.744156836e-16
-7.269310578e-16
-7.78499987e-16
-8.290426468e-16
-8.784797894e-16
-9.267332058e-16
-9.737258463e-16
-1.019381824e-15
-1.063626412e-15
-1.106385935e-15
-1.147587962e-15
-1.18716171e-15
-1.225038031e-15
-1.261149958e-15
-1.295432443e-15
-1.327822994e-15
-1.358261642e-15
-1.386691175e-15
-1.413057493e-15
-1.43730964e-15
-1.459400301e-15
-1.479285815e-15
-1.496926467e-15
-1.512286726e-15
-1.525335296e-15
-1.536045476e-15
-1.544395075e-15
-1.550366757e-15
-1.553948049e-15
-7.774761758e-16
-3.546311699e-08
-1.311012224e-07
-2.828332944e-07
-4.33870638e-07
-5.4174513e-07
-5.198039733e-07
-5.937068627e-07
1.211571443e-07
-2.534571094e-07
-5.274837059e-17
-1.120106396e-16
-1.719955898e-16
-2.297118272e-16
-2.868405923e-16
-3.4364069e-16
-4.000856395e-16
-4.560982229e-16
-5.115910845e-16
-5.664756003e-16
-6.206637188e-16
-6.740689096e-16
-7.266072688e-16
-7.781973456e-16
-8.28758932e-16
-8.782128057e-16
-9.264806527e-16
-9.734855305e-16
-1.019151726e-15
-1.06340475e-15
-1.106171091e-15
-1.147378666e-15
-1.186956687e-15
-1.224836281e-15
-1.260950413e-15
-1.295234336e-15
-1.327625557e-15
-1.358064298e-15
-1.386493385e-15
-1.412858837e-15
-1.437109827e-15
-1.459199065e-15
-1.479083017e-15
-1.496722069e-15
-1.512080676e-15
-1.52512777e-15
-1.535836627e-15
-1.544185213e-15
-1.55015624e-15
-1.553737327e-15
-7.773553927e-16
-6.824883416e-08
-1.847753869e-07
-3.392171188e-07
-4.727790542e-07
-5.54394185e-07
-2.57343517e-07
-4.725925479e-07
9.107019581e-07
-3.456989482e-07
-5.262952207e-17
-1.11716501e-16
-1.715820931e-16
-2.292078448e-16
-2.863031642e-16
-3.430982878e-16
-3.995563172e-16
-4.555914921e-16
-5.111127847e-16
-5.660289359e-16
-6.202492321e-16
-6.736852108e-16
-7.262516398e-16
-7.778664852e-16
-8.284495554e-16
-8.779217292e-16
-9.262049921e-16
-9.732225857e-16
-1.018899137e-15
-1.063160411e-15
-1.105933249e-15
-1.147145763e-15
-1.186727501e-15
-1.224609598e-15
-1.26072534e-15
-1.295010008e-15
-1.327401298e-15
-1.357839464e-15
-1.386267565e-15
-1.412631668e-15
-1.436881041e-15
-1.458968522e-15
-1.478850626e-15
-1.496487786e-15
-1.511844703e-15
-1.524890172e-15
-1.535597663e-15
-1.543945238e-15
-1.549915644e-15
-1.553496557e-15
-7.77220117e-16
-9.457661443e-08
-2.05146295e-07
-3.45992739e-07
-4.138444116e-07
-3.924311641e-07
3.29956085e-08
-4.441287116e-07
-3.060744732e-07
-9.572504054e-08
-5.250716707e-17
-1.114253442e-16
-1.711196566e-16
-2.286047509e-16
-2.856426146e-16
-3.424366163e-16
-3.989225714e-16
-4.549995845e-16
-5.105675363e-16
-5.655298898e-16
-6.197933596e-16
-6.732680135e-16
-7.258682312e-16
-7.775118533e-16
-8.281189051e-16
-8.77610828e-16
-9.259101385e-16
-9.729406246e-16
-1.018627335e-15
-1.062896438e-15
-1.105675182e-15
-1.146891948e-15
-1.186476528e-15
-1.224360436e-15
-1.260476919e-15
-1.294761539e-15
-1.327152145e-15
-1.357589118e-15
-1.386015581e-15
-1.412377753e-15
-1.436625018e-15
-1.458710307e-15
-1.478590192e-15
-1.496225249e-15
-1.511580159e-15
-1.524623893e-15
-1.535329955e-15
-1.543676424e-15
-1.54964617e-15
-1.553226867e-15
-7.770709896e-16
-1.123776331e-07
-1.860301395e-07
-2.994288467e-07
-2.910739204e-07
-1.447359277e-07
3.263155368e-07
-6.555553409e-08
1.946858172e-06
-4.18936592e-07
-5.229939843e-17
-1.109267938e-16
-1.704275673e-16
-2.278183323e-16
-2.848216906e-16
-3.416387359e-16
-3.981783842e-16
-4.543221369e-16
-5.099580772e-16
-5.649833574e-16
-6.19301917e-16
-6.728236187e-16
-7.254631539e-16
-7.771390484e-16
-8.277721913e-16
-8.772848391e-16
-9.25600431e-16
-9.726435607e-16
-1.018339868e-15
-1.062616069e-15
-1.105399806e-15
-1.146619882e-15
-1.186206372e-15
-1.224091007e-15
-1.260207327e-15
-1.294491023e-15
-1.326880089e-15
-1.35731504e-15
-1.385739186e-15
-1.412098804e-15
-1.436343415e-15
-1.458425991e-15
-1.478303278e-15
-1.495935843e-15
-1.51128848e-15
-1.524330289e-15
-1.535034735e-15
-1.543379991e-15
-1.549349e-15
-1.552929432e-15
-7.769085037e-16
-1.222049983e-07
-1.418263084e-07
-1.80504056e-07
-1.808994828e-07
-1.698765429e-07
-5.084303777e-07
-4.376550812e-07
-1.550458517e-06
1.175872586e-07
-5.209424501e-17
-1.10238399e-16
-1.693691272e-16
-2.267002118e-16
-2.83748299e-16
-3.406582362e-16
-3.973063243e-16
-4.535575915e-16
-5.09290291e-16
-5.643978852e-16
-6.187843907e-16
-6.723610378e-16
-7.250446123e-16
-7.767553744e-16
-8.274156778e-16
-8.769492505e-16
-9.252806935e-16
-9.723356299e-16
-1.018040483e-15
-1.062322591e-15
-1.105110111e-15
-1.146332254e-15
-1.185919451e-15
-1.223803674e-15
-1.259918746e-15
-1.294200447e-15
-1.326587033e-15
-1.357019114e-15
-1.385440123e-15
-1.411796475e-15
-1.436037799e-15
-1.45811711e-15
-1.477991289e-15
-1.495620998e-15
-1.510971046e-15
-1.524010615e-15
-1.534713203e-15
-1.543057168e-15
-1.549025273e-15
-1.552605389e-15
-7.767332793e-16
-1.215529043e-07
-1.114652874e-07
2.552449598e-09
1.950242581e-07
5.370017016e-07
6.496662745e-08
-5.350080125e-07
-1.242173082e-06
3.970431278e-07
-5.175440531e-17
-1.092953046e-16
-1.67963892e-16
-2.252298849e-16
-2.823964607e-16
-3.394841782e-16
-3.963101897e-16
-4.527180333e-16
-5.085795319e-16
-5.637891726e-16
-6.182549427e-16
-6.718927379e-16
-7.24623167e-16
-7.76369574e-16
-8.270567329e-16
-8.766101731e-16
-9.249560694e-16
-9.720212021e-16
-1.017732956e-15
-1.062019333e-15
-1.104809068e-15
-1.146031745e-15
-1.185618191e-15
-1.223500649e-15
-1.259613138e-15
-1.293891734e-15
-1.326274751e-15
-1.356702982e-15
-1.385120005e-15
-1.411472312e-15
-1.435709597e-15
-1.457785118e-15
-1.477655659e-15
-1.495282007e-15
-1.510629125e-15
-1.523666104e-15
-1.534366674e-15
-1.542709011e-15
-1.548676144e-15
-1.552255809e-15
-7.765458012e-16
-9.200573708e-08
-1.429343168e-07
-1.424560226e-07
-2.490423804e-07
-4.219185905e-07
-6.282161945e-07
5.135772334e-07
9.078707946e-07
-8.825088251e-08
-5.1153785e-17
-1.075201887e-16
-1.657749564e-16
-2.23199794e-16
-2.806980109e-16
-3.381158504e-16
-3.952154939e-16
-4.518343095e-16
-5.07854279e-16
-5.631811528e-16
-6.177330876e-16
-6.714342077e-16
-7.242111445e-16
-7.759915514e-16
-8.267032121e-16
-8.762739832e-16
-9.246317837e-16
-9.717047181e-16
-1.017421065e-15
-1.061709575e-15
-1.104499498e-15
-1.145720883e-15
-1.185304843e-15
-1.223183966e-15
-1.259292478e-15
-1.29356666e-15
-1.325944926e-15
-1.356368279e-15
-1.384780344e-15
-1.411127767e-15
-1.435360313e-15
-1.457431287e-15
-1.477297626e-15
-1.494920147e-15
-1.51026384e-15
-1.523297927e-15
-1.533996103e-15
-1.542336677e-15
-1.548302604e-15
-1.551881725e-15
-7.763465207e-16
8.200760502e-09
1.763041843e-08
9.163884801e-08
1.388819705e-07
-1.178302239e-07
-1.27719781e-06
-1.422156922e-07
-2.427076957e-06
2.270384191e-07
-5.032486776e-17
-1.042723596e-16
-1.623259988e-16
-2.204469266e-16
-2.786538364e-16
-3.366088318e-16
-3.940855212e-16
-4.509610904e-16
-5.071568394e-16
-5.626055002e-16
-6.172424568e-16
-6.710032017e-16
-7.238219837e-16
-7.756315604e-16
-8.263631407e-16
-8.759470842e-16
-9.243130195e-16
-9.713903546e-16
-1.01710832e-15
-1.061396277e-15
-1.104183985e-15
-1.145401904e-15
-1.184981475e-15
-1.222855515e-15
-1.258958501e-15
-1.293226802e-15
-1.325599068e-15
-1.356016367e-15
-1.384422485e-15
-1.410764081e-15
-1.434991072e-15
-1.457056823e-15
-1.476918317e-15
-1.494536472e-15
-1.50987629e-15
-1.522907092e-15
-1.53360255e-15
-1.541941055e-15
-1.547905616e-15
-1.551484054e-15
-7.761358736e-16
7.43207994e-08
4.28256477e-08
-8.51339801e-08
-3.345866881e-08
6.564041086e-07
7.326891288e-07
-3.628453491e-07
-3.772314905e-07
1.38992437e-07
-4.893491643e-17
-9.728711634e-17
-1.56867544e-16
-2.169644134e-16
-2.764351741e-16
-3.351283125e-16
-3.930419502e-16
-4.501829561e-16
-5.065451938e-16
-5.621017957e-16
-6.16810242e-16
-6.706187764e-16
-7.234694253e-16
-7.752996914e-16
-8.260441951e-16
-8.756353271e-16
-9.240044436e-16
-9.710819616e-16
-1.016797872e-15
-1.061082152e-15
-1.103864877e-15
-1.145076912e-15
-1.184649912e-15
-1.22251693e-15
-1.258612625e-15
-1.292873555e-15
-1.325238465e-15
-1.355648545e-15
-1.384047555e-15
-1.410382401e-15
-1.434602994e-15
-1.456662758e-15
-1.476518743e-15
-1.494131944e-15
-1.509467427e-15
-1.522494449e-15
-1.533186911e-15
-1.541523085e-15
-1.547486033e-15
-1.551063614e-15
-7.759142189e-16
1.49351044e-07
1.673272283e-07
-2.845589827e-07
-9.345958054e-07
-7.28594378e-07
5.333592577e-07
3.354821685e-07
-2.162397176e-08
9.461009897e-08
-4.657593746e-17
-7.923006077e-17
-1.494020472e-16
-2.134949662e-16
-2.745598428e-16
-3.339766552e-16
-3.922557807e-16
-4.495984066e-16
-5.060790092e-16
-5.617078197e-16
-6.164613264e-16
-6.702978322e-16
-7.231652131e-16
-7.750045705e-16
-8.257526744e-16
-8.753436757e-16
-9.237099216e-16
-9.707826141e-16
-1.016492324e-15
-1.060769301e-15
-1.10354404e-15
-1.144747458e-15
-1.184311572e-15
-1.22216955e-15
-1.258256173e-15
-1.292508132e-15
-1.324864253e-15
-1.355265748e-15
-1.383656631e-15
-1.409983701e-15
-1.434196952e-15
-1.456249949e-15
-1.476099748e-15
-1.493707401e-15
-1.509037955e-15
-1.522060871e-15
-1.532749878e-15
-1.541083404e-15
-1.54704455e-15
-1.550621147e-15
-7.756818084e-16
1.612953483e-07
3.989323636e-07
2.339623029e-07
-2.270432022e-07
-4.186539469e-07
5.084478218e-07
3.938992177e-07
1.200831552e-07
4.738927013e-08
-6.228572678e-14
-7.667845221e-17
-1.449644381e-16
-2.120544779e-16
-2.738363468e-16
-3.334920358e-16
-3.918847972e-16
-4.492893891e-16
-5.05804492e-16
-5.614517149e-16
-6.162136975e-16
-6.700524428e-16
-7.229177889e-16
-7.747520985e-16
-8.254931145e-16
-8.750754853e-16
-9.234321314e-16
-9.704945447e-16
-1.016193487e-15
-1.060459366e-15
-1.103222776e-15
-1.144414869e-15
-1.183967647e-15
-1.221814407e-15
-1.257890064e-15
-1.292131353e-15
-1.324477205e-15
-1.354868915e-15
-1.383250402e-15
-1.409568631e-15
-1.433773729e-15
-1.455819109e-15
-1.47566199e-15
-1.493263457e-15
-1.508588582e-15
-1.52160687e-15
-1.532292083e-15
-1.540622678e-15
-1.546581766e-15
-1.550157138e-15
-7.754389245e-16
-5.335314951e-10
1.458295481e-07
1.045191444e-07
-7.472462438e-08
-3.901957314e-07
2.40742071e-07
3.793508192e-07
4.359690344e-07
-1.552867395e-08
-5.949372264e-14
-6.885636396e-17
-1.484847763e-16
-2.136643351e-16
-2.745030549e-16
-3.337588201e-16
-3.919693849e-16
-4.492790458e-16
-5.057363336e-16
-5.613431756e-16
-6.160741824e-16
-6.698874453e-16
-7.227306709e-16
-7.745450301e-16
-8.252675249e-16
-8.748324982e-16
-9.231725191e-16
-9.702189408e-16
-1.015902413e-15
-1.060153244e-15
-1.10290201e-15
-1.144079839e-15
-1.183618747e-15
-1.221452154e-15
-1.257514952e-15
-1.291743931e-15
-1.32407798e-15
-1.354458504e-15
-1.382829516e-15
-1.40913788e-15
-1.433333792e-15
-1.455370745e-15
-1.475206007e-15
-1.492800616e-15
-1.508119786e-15
-1.521132953e-15
-1.53181398e-15
-1.540141307e-15
-1.546098058e-15
-1.54967213e-15
-7.751856197e-16
-1.177256315e-07
-1.115349429e-07
-1.112904363e-07
-4.116981881e-08
-1.959767566e-07
9.719614607e-08
1.286542498e-07
-1.815532772e-08
-4.590271309e-08
-2.942392971e-22
-8.86427045e-17
-1.556517399e-16
-2.166028851e-16
-2.759857865e-16
-3.345750557e-16
-3.924285156e-16
-4.495297147e-16
-5.058550392e-16
-5.613715963e-16
-6.160367808e-16
-6.697994391e-16
-7.226019654e-16
-7.743822675e-16
-8.250754014e-16
-8.746144251e-16
-9.229310103e-16
-9.699558745e-16
-1.015619221e-15
-1.059851113e-15
-1.102581931e-15
-1.143742634e-15
-1.183265271e-15
-1.221083172e-15
-1.257131155e-15
-1.291346091e-15
-1.323666918e-15
-1.354034967e-15
-1.382394233e-15
-1.408691697e-15
-1.432877486e-15
-1.454905196e-15
-1.474732053e-15
-1.492319202e-15
-1.507631816e-15
-1.52063941e-15
-1.531315825e-15
-1.539639573e-15
-1.545593757e-15
-1.549166271e-15
-7.74922033e-16
-1.323300567e-07
-2.096872465e-07
-1.961800822e-07
-6.093900462e-08
-2.923339003e-08
4.159818348e-08
-1.550453554e-07
-3.311692948e-07
-7.973028748e-08
-3.97073116e-17
-9.943458172e-17
-1.60309797e-16
-2.192682405e-16
-2.776697203e-16
-3.356563906e-16
-3.931215952e-16
-4.499672674e-16
-5.061187138e-16
-5.615119262e-16
-6.160859024e-16
-6.697783999e-16
-7.225250298e-16
-7.742594362e-16
-8.249137736e-16
-8.744192425e-16
-9.227061555e-16
-9.697043231e-16
-1.015343232e-15
-1.059552533e-15
-1.102262193e-15
-1.143403105e-15
-1.182907049e-15
-1.220707319e-15
-1.256738708e-15
-1.290938014e-15
-1.32324412e-15
-1.353598342e-15
-1.381944749e-15
-1.408230204e-15
-1.432405006e-15
-1.454422584e-15
-1.474240344e-15
-1.491819371e-15
-1.507124878e-15
-1.52012639e-15
-1.530797793e-15
-1.539117624e-15
-1.545068978e-15
-1.548639779e-15
-7.746481003e-16
-8.171202581e-08
-1.760106386e-07
-1.453829667e-07
-5.876096914e-08
2.213815642e-08
-1.538022867e-07
-4.062653462e-07
-2.202888586e-06
6.177088253e-07
-4.63330048e-17
-1.039331639e-16
-1.634576418e-16
-2.21536755e-16
-2.792973973e-16
-3.368039332e-16
-3.939181173e-16
-4.505098882e-16
-5.064758853e-16
-5.617311375e-16
-6.161997857e-16
-6.698097419e-16
-7.224899159e-16
-7.741695307e-16
-8.24777668e-16
-8.742433619e-16
-9.224953644e-16
-9.694623467e-16
-1.015073014e-15
-1.05925636e-15
-1.101942021e-15
-1.143060554e-15
-1.182543617e-15
-1.220324299e-15
-1.256337311e-15
-1.290519394e-15
-1.322809373e-15
-1.353148544e-15
-1.381480909e-15
-1.407753392e-15
-1.431916213e-15
-1.453922924e-15
-1.47373081e-15
-1.491301021e-15
-1.506598874e-15
-1.519593846e-15
-1.530259833e-15
-1.538575423e-15
-1.544523676e-15
-1.54809258e-15
-7.743637606e-16
-1.30143083e-08
-5.993615727e-08
-3.457086484e-09
-3.624850201e-08
-2.041534599e-07
-2.347497679e-07
2.174776393e-07
4.144866024e-07
3.419245396e-08
-4.882823429e-17
-1.064896946e-16
-1.65759835e-16
-2.234138395e-16
-2.807570503e-16
-3.379030795e-16
-3.947263815e-16
-4.510902438e-16
-5.068791828e-16
-5.61996056e-16
-6.163552188e-16
-6.698769864e-16
-7.224848569e-16
-7.74104044e-16
-8.246608416e-16
-8.740821152e-16
-9.222950935e-16
-9.692272471e-16
-1.014806391e-15
-1.058960928e-15
-1.10162006e-15
-1.142713967e-15
-1.182174104e-15
-1.219933354e-15
-1.255926445e-15
-1.290089776e-15
-1.322362324e-15
-1.352685193e-15
-1.381002443e-15
-1.407260976e-15
-1.431410911e-15
-1.453405887e-15
-1.473203218e-15
-1.490764045e-15
-1.506053643e-15
-1.519041593e-15
-1.529701793e-15
-1.538012744e-15
-1.54395771e-15
-1.547524532e-15
-7.740688662e-16
3.780831189e-08
3.063991875e-08
1.017623209e-07
-6.264123893e-09
-6.553902264e-07
-1.124482789e-06
4.092830849e-07
-1.376846909e-06
-5.155499733e-08
-5.0184099e-17
-1.081081563e-16
-1.673909204e-16
-2.248660249e-16
-2.819722251e-16
-3.388770322e-16
-3.95480891e-16
-4.516567055e-16
-5.072892165e-16
-5.62277346e-16
-6.165303939e-16
-6.699639856e-16
-7.224976932e-16
-7.740538637e-16
-8.24556316e-16
-8.739301879e-16
-9.22101226e-16
-9.689957818e-16
-1.01454085e-15
-1.058664228e-15
-1.101294652e-15
-1.142361969e-15
-1.181797373e-15
-1.219533606e-15
-1.25550516e-15
-1.289648502e-15
-1.321902328e-15
-1.352207814e-15
-1.380508874e-15
-1.406752459e-15
-1.430888696e-15
-1.452871184e-15
-1.472657232e-15
-1.490208025e-15
-1.505488889e-15
-1.518469306e-15
-1.529123295e-15
-1.537429395e-15
-1.543370736e-15
-1.546935297e-15
-7.737631428e-16
6.755832217e-08
4.740296364e-08
7.310140881e-08
2.158338476e-07
4.030429263e-07
5.088563757e-07
-7.284413496e-07
-1.652550251e-06
2.349483815e-07
-5.101859993e-17
-1.092607848e-16
-1.686235194e-16
-2.260056666e-16
-2.829651475e-16
-3.397071179e-16
-3.961499245e-16
-4.521770579e-16
-5.076778432e-16
-5.62551871e-16
-6.167068747e-16
-6.700561602e-16
-7.225171369e-16
-7.74010068e-16
-8.244571873e-16
-8.73782089e-16
-9.21909355e-16
-9.687643978e-16
-1.014273486e-15
-1.058363856e-15
-1.100963803e-15
-1.142002898e-15
-1.181412054e-15
-1.219123848e-15
-1.255072617e-15
-1.289194641e-15
-1.321428585e-15
-1.351715591e-15
-1.379999517e-15
-1.406227261e-15
-1.430348936e-15
-1.452318207e-15
-1.472092302e-15
-1.489632491e-15
-1.504904019e-15
-1.517876501e-15
-1.528523906e-15
-1.536824755e-15
-1.542762287e-15
-1.546324407e-15
-7.73446344e-16
9.436053647e-08
2.518182492e-08
-3.439514181e-07
-8.061001904e-07
-6.864296275e-07
9.289189395e-07
-2.093191569e-07
1.923811449e-06
-3.765378583e-07
-5.150187673e-17
-1.09999346e-16
-1.694878404e-16
-2.268633674e-16
-2.837514881e-16
-3.403915547e-16
-3.967205153e-16
-4.526336163e-16
-5.080270334e-16
-5.628031523e-16
-6.16870383e-16
-6.701415805e-16
-7.225332703e-16
-7.739646775e-16
-8.243568595e-16
-8.736324396e-16
-9.217150767e-16
-9.685294508e-16
-1.014001295e-15
-1.058057326e-15
-1.100625446e-15
-1.141634992e-15
-1.181016634e-15
-1.21870276e-15
-1.254627492e-15
-1.288727095e-15
-1.320940174e-15
-1.351207719e-15
-1.379473561e-15
-1.405684609e-15
-1.429791008e-15
-1.451746266e-15
-1.471507791e-15
-1.489036743e-15
-1.504298503e-15
-1.517262561e-15
-1.527903002e-15
-1.536198347e-15
-1.542131794e-15
-1.545691321e-15
-7.731181123e-16
1.189662186e-07
2.261563264e-07
-7.30124754e-09
-5.326081547e-07
-1.027087189e-06
6.421053841e-08
-1.162324786e-07
-3.537847804e-07
-2.441910934e-07
-5.185763392e-17
-1.105445529e-16
-1.701143199e-16
-2.275062839e-16
-2.843636774e-16
-3.409421361e-16
-3.97192208e-16
-4.530194633e-16
-5.083267888e-16
-5.630204369e-16
-6.170106181e-16
-6.702109833e-16
-7.225380481e-16
-7.739106575e-16
-8.242493876e-16
-8.734761875e-16
-9.215141874e-16
-9.682874523e-16
-1.013721246e-15
-1.05774201e-15
-1.100277348e-15
-1.141256297e-15
-1.180609351e-15
-1.218268723e-15
-1.25416848e-15
-1.288244743e-15
-1.320435942e-15
-1.350683098e-15
-1.378930047e-15
-1.405123612e-15
-1.42921391e-15
-1.451154575e-15
-1.470902865e-15
-1.488420069e-15
-1.503671505e-15
-1.516626768e-15
-1.52725989e-15
-1.535549413e-15
-1.541478557e-15
-1.545035334e-15
-7.727780359e-16
1.454045653e-09
1.039481687e-07
1.443690731e-07
5.335625144e-08
-3.015050391e-07
2.139726912e-07
-5.58432205e-07
7.192103816e-07
-3.27487739e-07
-5.208832259e-17
-1.109267336e-16
-1.705643854e-16
-2.279838293e-16
-2.848330795e-16
-3.413756561e-16
-3.975714951e-16
-4.53334322e-16
-5.085729898e-16
-5.631975906e-16
-6.171208093e-16
-6.702576014e-16
-7.225251296e-16
-7.738423822e-16
-8.241298026e-16
-8.733090414e-16
-9.213028026e-16
-9.680349724e-16
-1.013430461e-15
-1.057415424e-15
-1.099917277e-15
-1.140864878e-15
-1.180188543e-15
-1.217820347e-15
-1.253694204e-15
-1.287746193e-15
-1.319914704e-15
-1.3501407e-15
-1.378367945e-15
-1.404543279e-15
-1.428616809e-15
-1.450542169e-15
-1.470276669e-15
-1.487781579e-15
-1.503022258e-15
-1.515968289e-15