/*--------------------------------*- C++ -*----------------------------------*\
  =========                 |
  \\      /  F ield         | OpenFOAM: The Open Source CFD Toolbox
   \\    /   O peration     | Website:  https://openfoam.org
    \\  /    A nd           | Version:  6
     \\/     M anipulation  |
\*---------------------------------------------------------------------------*/
FoamFile
{
    version     2.0;
    format      ascii;
    class       volScalarField;
    location    "0.15";
    object      p_rgh;
}
// * * * * * * * * * * * * * * * * * * * * * * * * * * * * * * * * * * * * * //

dimensions      [1 -1 -2 0 0 0 0];

internalField   nonuniform List<scalar> 
2500
(
0.6078574807
0.5122028466
0.4687360143
0.3870614639
0.3765961748
0.4084450744
0.4245129665
0.454808288
27276.55089
27424.78536
27571.36805
27715.43098
27855.82848
27991.54301
28121.70961
28245.63137
28362.78476
28472.81595
28575.52985
28670.87386
28758.91847
28839.83631
28913.88123
28981.36852
29042.65691
29098.13274
29148.1967
29193.2528
29233.6997
29269.92403
29302.29545
29331.1633
29356.85434
29379.67162
29399.89404
29417.77649
29433.55049
29447.42504
29459.58769
29470.20575
29479.42751
29487.38342
29494.18732
29499.93748
29504.71761
29508.5978
29511.63522
29513.87483
29515.34985
29516.0821
0.352092143
0.4067372398
0.3987254962
0.3644628346
0.358787827
0.3843911668
0.4027968977
0.4064922337
27276.52903
27426.06863
27573.8886
27719.09587
27860.51084
27997.09032
28127.95385
28252.3992
28369.90653
28480.13295
28582.89958
28678.17327
28766.04541
28846.70953
28920.4393
28987.56801
29048.47014
29103.5454
29153.20543
29197.86294
29237.92329
29273.778
29305.80016
29334.34127
29359.72931
29382.26773
29402.23527
29419.88624
29435.45127
29449.13828
29461.13364
29471.60344
29480.69475
29488.53685
29495.24249
29500.90893
29505.61901
29509.44202
29512.4345
29514.6409
29516.09409
29516.81584
0.148239983
0.3263959839
0.3715058958
0.3740674926
0.3700636079
0.3874587415
0.3980958273
0.3867948415
27276.52576
27428.69081
27579.02256
27726.55267
27870.02827
28008.35315
28140.61595
28266.10485
28384.30914
28494.90988
28597.76257
28692.87477
28780.3811
28860.518
28933.59951
28999.99534
29060.11164
29114.37483
29163.21832
29207.07202
29246.35437
29281.46646
29312.78794
29340.67442
29365.45604
29387.43693
29406.89533
29424.08424
29439.23243
29452.54556
29464.20759
29474.3821
29483.21368
29490.82928
29497.33941
29502.83932
29507.41006
29511.11937
29514.02248
29516.16279
29517.5724
29518.2725
-0.0050011999
0.2408023761
0.3330651772
0.3870845299
0.4011148644
0.4025513186
0.4062416301
0.3964036002
27276.54709
27432.75057
27586.95864
27738.06346
27884.69583
28025.67749
28160.05143
28287.09473
28406.31509
28517.43482
28620.36624
28715.1825
28802.08681
28881.38263
28953.44634
29018.70327
29077.60748
29130.62532
29178.22244
29220.85399
29258.95735
29292.94724
29323.21248
29350.11425
29373.98539
29395.13055
29413.82684
29430.325
29444.85069
29457.60603
29468.77117
29478.50582
29486.95078
29494.22937
29500.44875
29505.70111
29510.06479
29513.60517
29516.37553
29518.41767
29519.7625
29520.43041
-0.09790450618
0.156210108
0.2756684309
0.383759576
0.4182362565
0.4103158727
0.4114000548
0.4071999644
27276.57318
27438.40573
27597.99834
27754.04598
27905.01333
28049.60878
28186.81689
28315.90704
28436.42138
28548.14798
28651.08522
28745.40256
28831.40158
28909.48015
28980.10092
29043.76504
29100.99094
29152.29787
29198.19361
29239.16569
29275.67544
29308.15437
29337.00225
29362.58652
29385.2426
29405.27494
29422.95846
29438.54022
29452.24132
29464.25877
29474.76733
29483.92135
29491.85639
29498.69084
29504.52729
29509.4538
29513.54504
29516.86324
29519.45903
29521.3721
29522.63178
29523.25738
-0.1263391525
0.07620384176
0.1943023146
0.344417879
0.4105650407
0.4208821252
0.4084494129
0.4155696727
27276.59759
27445.88869
27612.58324
27775.10783
27931.70169
28080.92638
28221.69942
28353.2945
28475.31499
28587.65036
28690.42426
28783.94131
28868.63744
28945.0363
29013.71315
29075.26618
29130.29465
29179.38302
29223.08996
29261.94131
29296.426
29326.99427
29354.05742
29377.9888
29399.12541
29417.77008
29434.19378
29448.63809
29461.31764
29472.42245
29482.12013
29490.55796
29497.86474
29504.15248
29509.51795
29514.04395
29517.80053
29520.84593
29523.22747
29524.98218
29526.13738
29526.71108
-0.1010448763
0.01921843534
0.1108167716
0.2792832783
0.3964222512
0.4277129121
0.4001150085
0.4242831903
27276.62971
27455.53377
27631.33818
27802.09906
27965.75775
28120.69425
28265.75876
28400.25568
28523.8932
28636.71404
28739.02027
28831.30144
28914.17127
28988.31536
29054.4503
29113.29313
29165.53984
29211.85106
29252.84345
29289.08521
29321.09469
29349.34103
29374.24617
29396.18769
29415.50207
29432.48812
29447.41045
29460.50272
29471.97073
29481.99531
29490.73487
29498.32774
29504.89425
29510.53856
29515.35025
29519.40573
29522.7694
29525.49472
29527.62497
29529.194
29530.22674
29530.7396
-0.04893008362
-0.004079363414
0.04781402854
0.1967850058
0.350092435
0.4106070322
0.4069573585
0.4289738769
27276.6937
27467.81789
27655.13647
27836.19053
28008.53397
28170.33224
28320.38415
28458.07515
28583.28745
28696.29211
28797.64153
28888.07343
28968.43162
29039.6046
29102.48076
29157.91755
29206.72197
29249.63949
29287.34919
29320.46307
29349.52825
29375.03077
29397.40037
29417.01559
29434.20893
29449.27182
29462.45915
29473.99359
29484.06928
29492.85525
29500.49838
29507.12598
29512.84809
29517.7594
29521.94094
29525.46149
29528.37884
29530.74078
29532.58591
29533.94434
29534.83823
29535.28212
-0.0162481596
-0.008276014778
0.009719123421
0.110059411
0.2629379128
0.3662896206
0.4212232463
0.3950988201
27276.78437
27483.41977
27685.19834
27878.98981
28061.85254
28231.71407
28387.36845
28528.37194
28654.88856
28767.52521
28867.18056
28954.91977
29031.87812
29099.19186
29157.95194
29209.17582
29253.79256
29292.63739
29326.45243
29355.89138
29381.52625
29403.85526
29423.3108
29440.26724
29455.04818
29467.93299
29479.16273
29488.94522
29497.45958
29504.86009
29511.27949
29516.83182
29521.61487
29525.71218
29529.19477
29532.12263
29534.5459
29536.50586
29538.03576
29539.16146
29539.90194
29540.26966
-0.01296160434
-0.009305534449
-0.01157784282
0.03766144776
0.1578216513
0.2870201231
0.3781038695
0.2611939371
27277.03938
27503.34844
27723.24498
27932.71375
28128.16829
28307.29964
28469.0011
28613.15394
28740.36884
28851.73951
28948.6362
29032.54784
29104.97041
29167.33416
29220.96086
29267.04286
29306.63677
29340.66682
29369.93357
29395.12555
29416.83194
29435.55506
29451.72219
29465.69629
29477.78546
29488.2512
29497.31552
29505.16696
29511.96575
29517.84809
29522.92974
29527.30906
29531.06952
29534.2818
29537.00549
29539.29055
29541.17846
29542.70321
29543.89203
29544.76603
29545.34066
29545.62603
-0.0167805397
-0.01302486634
-0.02204452327
-0.009011529066
0.07049286626
0.1798126383
0.2249191127
0.02646789041
27278.29403
27529.07072
27771.71483
28000.44578
28210.80156
28400.31055
28568.1792
28714.87203
28841.69261
28950.4279
29043.07764
29121.66619
29188.12302
29244.21516
29291.51628
29331.3998
29365.04671
29393.46142
29417.49133
29437.8472
29455.12278
29469.81273
29482.32851
29493.01218
29502.1481
29509.97278
29516.68314
29522.44335
29527.39041
29531.63882
29535.28438
29538.40723
29541.07447
29543.34215
29545.25701
29546.85779
29548.17638
29549.23868
29550.06532
29550.67219
29551.07085
29551.26888
-0.02134941954
-0.02231541881
-0.02678254763
-0.03613609643
0.01384338749
0.06960073202
-0.007708252804
-0.2227026475
27277.96524
27562.13572
27834.08761
28086.54327
28314.27356
28514.95593
28688.5294
28836.4605
28961.10125
29065.20244
29151.58154
29222.91795
29281.64223
29329.88921
29369.49136
29401.99542
29428.69087
29450.64281
29468.72509
29483.65108
29496.00117
29506.24646
29514.76884
29521.87775
29527.82391
29532.81062
29537.0029
29540.53487
29543.51572
29546.03445
29548.16378
29549.96311
29551.48108
29552.75746
29553.82474
29554.70938
29555.43276
29556.01201
29556.4606
29556.78876
29557.00391
29557.11086
-0.02788113929
-0.03393880583
-0.03727525373
-0.05710892174
-0.03239573495
-0.03099822588
-0.2258899941
-0.2808347031
27278.12666
27606.35882
27915.94183
28197.35184
28444.78249
28656.70296
28834.51804
28981.33789
29101.04975
29197.70048
29275.13018
29336.78419
29385.6412
29424.21054
29454.5669
29478.40194
29497.08072
29511.69598
29523.11717
29532.03285
29538.98631
29544.40502
29548.62457
29551.90797
29554.46107
29556.44481
29557.98491
29559.17949
29560.10513
29560.82153
29561.37521
29561.80243
29562.13138
29562.38398
29562.57726
29562.72437
29562.83544
29562.9182
29562.97848
29563.02054
29563.04738
29563.0609
-0.03845312878
-0.04806198362
-0.05508133411
-0.07375903979
-0.08467860655
-0.1305812438
-0.3444689887
0.02731276863
27280.20123
27667.79699
28025.94621
28342.11867
28610.78724
28832.54727
29011.49847
29153.32302
29264.06103
29349.42225
29414.45763
29463.45065
29499.93096
29526.74779
29546.16648
29559.96727
29569.53645
29575.94541
29580.01686
29582.37885
29583.50816
29583.76466
29583.41834
29582.67039
29581.66951
29580.52457
29579.31436
29578.09501
29576.90576
29575.77332
29574.71515
29573.74207
29572.8601
29572.07194
29571.37808
29570.77755
29570.26859
29569.84905
29569.51676
29569.26975
29569.10639
29569.02555
-0.0528585189
-0.06410392041
-0.07606776397
-0.0945041674
-0.1262207126
-0.2229299582
-0.3409745606
0.7001736376
27285.41219
27756.78319
28177.89027
28534.35902
28823.68333
29051.19285
29225.60425
29356.39688
29452.45304
29521.47442
29569.83198
29602.63412
29623.88806
29636.68664
29643.38702
29645.76695
29645.15488
29642.53464
29638.62814
29633.95956
29628.90476
29623.72901
29618.61564
29613.68762
29609.02388
29604.67151
29600.65486
29596.98236
29593.65156
29590.65281
29587.97202
29585.59264
29583.49707
29581.66771
29580.08768
29578.7413
29577.61446
29576.69482
29575.97196
29575.43748
29575.08505
29574.91046
-0.07027892887
-0.08321489409
-0.09863634698
-0.1236265303
-0.1457134631
-0.2714089133
-0.2549420819
1.498909553
27300.79953
27893.59882
28394.41521
28793.70488
29098.37753
29322.93308
29483.33221
29594.21365
29667.88711
29714.19745
29740.76806
29753.37123
29756.30514
29752.72763
29744.93134
29734.56153
29722.78401
29710.41243
29698.00362
29685.92848
29674.42421
29663.63285
29653.62941
29644.44239
29636.06872
29628.48457
29621.65308
29615.52993
29610.06725
29605.21632
29600.92949
29597.16143
29593.86988
29591.01623
29588.56573
29586.48764
29584.75528
29583.34596
29582.24093
29581.42533
29580.88809
29580.62185
-0.08996817195
-0.1041730255
-0.1206262688
-0.1506945064
-0.1643865178
-0.2744319279
-0.1866969422
2.03239794
27353.47207
28119.36157
28712.39058
29147.62993
29453.1817
29658.83667
29790.58995
29869.25127
29910.69605
29926.67016
29925.67977
29913.78417
29895.23893
29872.99166
29849.05268
29824.76675
29801.00973
29778.32967
29757.04749
29737.32842
29719.23258
29702.75058
29687.82855
29674.38559
29662.32584
29651.54678
29641.94481
29633.41892
29625.87308
29619.21766
29613.37018
29608.2557
29603.80684
29599.96367
29596.67345
29593.89038
29591.5752
29589.69495
29588.22264
29587.13701
29586.42229
29586.06807
-0.111411693
-0.1254137026
-0.143117146
-0.1741318384
-0.1980599659
-0.2631931126
-0.2656143744
1.967601284
27533.95693
28514.26924
29188.09807
29631.23409
29907.90177
30068.66817
30150.96476
30181.52661
30178.9925
30156.12034
30121.5065
30080.85418
30037.88039
29994.95175
29953.52442
29914.44588
29878.16086
29844.85112
29814.53014
29787.10693
29762.42883
29740.31002
29720.5503
29702.94728
29687.30401
29673.43368
29661.16225
29650.32969
29640.79038
29632.41297
29625.07983
29618.68635
29613.14013
29608.3602
29604.27612
29600.82731
29597.9623
29595.63814
29593.81983
29592.47993
29591.59815
29591.16114
-0.1334841174
-0.1452349973
-0.1639385972
-0.1914170359
-0.2363738768
-0.261339457
-0.4559248925
1.218375788
28065.95399
29211.26499
29894.56141
30281.37466
30478.58887
30557.02327
30563.11526
30526.92788
30467.64848
30397.3274
30323.38246
30250.25329
30180.48221
30115.41461
30055.65046
30001.33398
29952.33879
29908.38563
29869.1167
29834.14193
29803.06735
29775.51193
29751.11696
29729.55083
29710.51088
29693.72339
29678.94258
29665.949
29654.54763
29644.56591
29635.85175
29628.27169
29621.70915
29616.0629
29611.24558
29607.18253
29603.81068
29601.07759
29598.94075
29597.36687
29596.33142
29595.81826
-0.1545306835
-0.1622399368
-0.1799224156
-0.2036146075
-0.2623335817
-0.2686129835
-0.5254321356
0.1932330294
29295.84764
30365.58168
30897.79954
31121.29436
31168.17784
31117.80305
31017.60004
30895.45747
30767.37
30642.17399
30524.45294
30416.3012
30318.38522
30230.57733
30152.33129
30082.90272
30021.4763
29967.23739
29919.4105
29877.2781
29840.18811
29807.55481
29778.85624
29753.62975
29731.46689
29712.00806
29694.93738
29679.97785
29666.88704
29655.45314
29645.49147
29636.84145
29629.36389
29622.93868
29617.46283
29612.84865
29609.02238
29605.92293
29603.50085
29601.71753
29600.54456
29599.96327
-0.1729298962
-0.175042862
-0.1876274233
-0.2073566751
-0.2592710323
-0.2936038053
-0.5186481814
-0.4615381973
31462.54741
32053.42067
32210.23441
32138.08913
31955.18506
31728.50936
31494.08449
31269.96845
31064.22204
30879.55883
30715.96207
30572.11821
30446.18321
30336.1802
30240.19611
30156.47048
30083.42734
30019.67815
29964.01084
29915.37296
29872.85336
29835.66424
29803.12477
29774.64645
29749.72037
29727.90618
29708.82267
29692.1397
29677.57133
29664.86998
29653.82144
29644.24068
29635.96822
29628.86714
29622.82043
29617.72892
29613.50936
29610.093
29607.42431
29605.45997
29604.16818
29603.52802
-0.1875841613
-0.1824983213
-0.1859406248
-0.1995639987
-0.2336492327
-0.3171005406
-0.469930211
-0.328794572
34422.98063
34173.33519
33752.04853
33265.89914
32786.11965
32347.05558
31960.31093
31626.13728
31340.00529
31095.8845
30887.72179
30710.02789
30558.04986
30427.76442
30315.80265
30219.35596
30136.08477
30064.03755
30001.58241
29947.35037
29900.18908
29859.12511
29823.33337
29792.11225
29764.86338
29741.07513
29720.30902
29702.18863
29686.39035
29672.63581
29660.6855
29650.33352
29641.40315
29633.7432
29627.22488
29621.73928
29617.19523
29613.51752
29610.64552
29608.53201
29607.14231
29606.45365
-0.1978519454
-0.1843566253
-0.175117764
-0.1761564427
-0.1728095968
-0.2682331629
-0.2158288523
1.205034573
37655.09841
36465.96707
35358.89241
34387.52609
33576.45454
32913.34045
32373.9912
31934.27272
31573.77819
31276.25001
31029.00983
30822.21892
30648.22157
30501.0232
30375.89285
30269.06518
30177.51785
30098.80486
30030.93115
29972.25756
29921.42823
29877.31469
29838.97244
29805.60702
29776.54714
29751.2234
29729.15122
29709.91708
29693.16735
29678.59918
29665.95307
29655.00663
29645.56961
29637.47961
29630.59863
29624.81016
29620.01682
29616.13843
29613.11036
29610.88235
29609.41752
29608.69166
-0.2037534973
-0.182213014
-0.1590610504
-0.1414635914
-0.08347367261
-0.114035966
0.2810197471
5.113179242
40409.61479
38680.06603
36830.18638
35349.05048
34218.89451
33355.86167
32688.0229
32163.16413
31744.56751
31406.31404
31129.83845
30901.60896
30711.58894
30552.21013
30417.67773
30303.49234
30206.11557
30122.73241
30051.07972
29989.32079
29935.95217
29889.73377
29849.63569
29814.79742
29784.49605
29758.12153
29735.1569
29715.16273
29697.76447
29682.64228
29669.52278
29658.17222
29648.39099
29640.00899
29632.88187
29626.88793
29621.92555
29617.9111
29614.77724
29612.47165
29610.95591
29610.20484
-0.2062218189
-0.1795995811
-0.1470963162
-0.1150950025
-0.01856282572
0.01777392908
0.595211909
0.09187256538
41026.05922
41025.61385
37935.26706
35959.93553
34594.15368
33603.09067
32858.99741
32285.7398
31834.97741
31474.57567
31182.40423
30942.77802
30744.30715
30578.54517
30439.11188
30321.10842
30220.71816
30134.92864
30061.33424
29997.99382
29943.32633
29896.03323
29855.04007
29819.452
29788.51939
29761.61113
29738.19362
29717.81408
29700.0872
29684.68446
29671.32536
29659.77035
29649.81506
29641.28545
29634.03394
29627.9362
29622.88842
29618.80525
29615.61798
29613.2732
29611.73176
29610.96796
-0.2062219002
-0.1795997355
-0.1470965187
-0.115095202
-0.01856271422
0.01777448407
0.5952149711
0.0918820895
41026.05897
41025.61379
37935.266
35959.93438
34594.15268
33603.08985
32858.99676
32285.73929
31834.97702
31474.57538
31182.40401
30942.77787
30744.30705
30578.54511
30439.11186
30321.10844
30220.71821
30134.92871
30061.33434
29997.99395
29943.32648
29896.03339
29855.04026
29819.4522
29788.51961
29761.61136
29738.19387
29717.81433
29700.08747
29684.68474
29671.32564
29659.77065
29649.81536
29641.28576
29634.03426
29627.93652
29622.88875
29618.80558
29615.61832
29613.27355
29611.7321
29610.9683
-0.2037537251
-0.1822134778
-0.159061736
-0.1414643461
-0.08347420608
-0.1140355239
0.2810261402
5.113180528
40409.61257
38680.0622
36830.18226
35349.04679
34218.89144
33355.85922
32688.02098
32163.16264
31744.56636
31406.31317
31129.83781
30901.6085
30711.58864
30552.20996
30417.67768
30303.4924
30206.11572
30122.73264
30051.08003
29989.32116
29935.95261
29889.73426
29849.63624
29814.79802
29784.4967
29758.12222
29735.15763
29715.1635
29697.76528
29682.64312
29669.52365
29658.17311
29648.39191
29640.00993
29632.88283
29626.88891
29621.92655
29617.9121
29614.77826
29612.47267
29610.95694
29610.20586
-0.1978522763
-0.1843573989
-0.1751190471
-0.1761582022
-0.1728121197
-0.2682357428
-0.2158290017
1.204968373
37655.08946
36465.95808
35358.88454
34387.51966
33576.44945
32913.33647
32373.98811
31934.27033
31573.77636
31276.24862
31029.0088
30822.2182
30648.2211
30501.02294
30375.89278
30269.06529
30177.51811
30098.80525
30030.93166
29972.25819
29921.42896
29877.31551
29838.97336
29805.60802
29776.54822
29751.22455
29729.15244
29709.91836
29693.16869
29678.60058
29665.95451
29655.00813
29645.57115
29637.48119
29630.60023
29624.81179
29620.01848
29616.14011
29613.11205
29610.88406
29609.41924
29608.69338
-0.1875845316
-0.1824993379
-0.185942437
-0.1995668295
-0.2336539618
-0.3171074934
-0.4699449755
-0.3289873668
34422.9585
34173.31937
33752.03658
33265.89007
32786.11275
32347.05028
31960.30685
31626.13413
31340.00288
31095.88267
30887.72044
30710.02694
30558.04924
30427.7641
30315.80259
30219.35613
30136.08514
30064.03811
30001.58314
29947.35125
29900.19011
29859.12627
29823.33466
29792.11365
29764.8649
29741.07675
29720.31073
29702.19043
29686.39223
29672.63777
29660.68753
29650.33561
29641.4053
29633.7454
29627.22713
29621.74157
29617.19755
29613.51987
29610.64789
29608.5344
29607.1447
29606.45606
-0.1729302399
-0.1750439767
-0.1876294763
-0.207359996
-0.2592766723
-0.2936126989
-0.5186703039
-0.4617392394
31462.52371
32053.40019
32210.21938
32138.07816
31955.17689
31728.50315
31494.07972
31269.96475
31064.2192
30879.55667
30715.96048
30572.11709
30446.18251
30336.17986
30240.19608
30156.47073
30083.42785
30019.6789
29964.0118
29915.37412
29872.8547
29835.66575
29803.12644
29774.64827
29749.72232
29727.90826
29708.82488
29692.14202
29677.57376
29664.8725
29653.82405
29644.24337
29635.97099
29628.86997
29622.82333
29617.73186
29613.51235
29610.09603
29607.42736
29605.46305
29604.17127
29603.53111
-0.154530959
-0.1622410098
-0.1799243849
-0.2036176639
-0.2623382242
-0.2686192777
-0.5254454262
0.1928275327
29295.79237
30365.5543
30897.78279
31121.28276
31168.16924
31117.79647
31017.59491
30895.45346
30767.36688
30642.17161
30524.45118
30416.29998
30318.38447
30230.57699
30152.33132
30082.90308
30021.47696
29967.23834
29919.4117
29877.27954
29840.18977
29807.55668
29778.85829
29753.63198
29731.46929
29712.01062
29694.94008
29679.98069
29666.89001
29655.45623
29645.49467
29636.84475
29629.36727
29622.94215
29617.46637
29612.85225
29609.02604
29605.92663
29603.50458
29601.72129
29600.54834
29599.96705
-0.133484318
-0.1452359665
-0.1639403472
-0.191419548
-0.2363769062
-0.2613420658
-0.4559270624
1.218213256
28065.93268
29211.24809
29894.54844
30281.36455
30478.58086
30557.01686
30563.11011
30526.92377
30467.64525
30397.32493
30323.38063
30250.25204
30180.48146
30115.41432
30055.65058
30001.33448
29952.33963
29908.38679
29869.11816
29834.14366
29803.06934
29775.51415
29751.1194
29729.55349
29710.51373
29693.72642
29678.94578
29665.95236
29654.55115
29644.56956
29635.85553
29628.27559
29621.71316
29616.067
29611.24977
29607.1868
29603.815
29601.08197
29598.94517
29597.37132
29596.33589
29595.82274
-0.1114118373
-0.1254145938
-0.1431187767
-0.1741341277
-0.1980624765
-0.263194912
-0.2656141786
1.967631749
27533.96179
28514.26327
29188.08997
29631.22625
29907.89484
30068.66226
30150.95983
30181.52258
30178.98929
30156.11786
30121.50467
30080.85295
30037.8797
29994.95155
29953.52466
29914.44654
29878.1619
29844.85251
29814.53186
29787.10896
29762.43115
29740.31261
29720.55315
29702.95036
29687.30731
29673.4372
29661.16596
29650.33358
29640.79445
29632.4172
29625.0842
29618.69085
29613.14476
29608.36494
29604.28096
29600.83223
29597.9673
29595.64319
29593.82493
29592.48507
29591.60331
29591.16631
-0.08996828145
-0.1041738862
-0.120627918
-0.1506969435
-0.1643896268
-0.2744357608
-0.186702048
2.032383543
27353.47208
28119.35789
28712.38491
29147.62372
29453.17573
29658.83129
29790.58531
29869.24739
29910.69292
29926.66774
29925.67801
29913.78302
29895.23834
29872.99158
29849.05309
29824.7676
29801.01099
29778.33132
29757.0495
29737.33077
29719.23525
29702.75354
29687.8318
29674.3891
29662.32961
29651.55079
29641.94903
29633.42335
29625.8777
29619.22246
29613.37515
29608.26082
29603.8121
29599.96905
29596.67894
29593.89596
29591.58087
29589.70069
29588.22843
29587.14284
29586.42814
29586.07394
-0.0702790104
-0.08321574083
-0.09863806386
-0.1236292561
-0.1457174384
-0.2714141079
-0.2549484918
1.498891626
27300.79869
27893.59575
28394.41054
28793.69951
29098.37214
29322.92809
29483.32782
29594.20995
29667.88412
29714.19514
29740.76641
29753.3702
29756.30469
29752.72772
29744.93193
29734.56259
29722.78552
29710.41435
29698.00594
29685.93116
29674.42724
29663.63621
29653.63308
29644.44635
29636.07296
29628.48906
29621.65782
29615.5349
29610.07243
29605.2217
29600.93506
29597.16716
29593.87577
29591.02225
29588.57188
29586.4939
29584.76163
29583.35238
29582.24741
29581.43186
29580.89464
29580.62841
-0.05285855235
-0.06410469521
-0.07606943959
-0.0945070318
-0.1262250027
-0.2229352053
-0.3409801467
0.700161774
27285.41159
27756.78014
28177.88568
28534.35381
28823.67813
29051.18804
29225.60002
29356.39333
29452.45019
29521.47226
29569.83048
29602.63324
29623.88778
29636.68692
29643.38782
29645.76825
29645.15664
29642.53685
29638.63077
29633.96258
29628.90815
29623.73276
29618.61973
29613.69202
29609.02859
29604.6765
29600.66011
29596.98787
29593.6573
29590.65877
29587.97819
29585.59899
29583.50359
29581.67438
29580.09449
29578.74823
29577.62149
29576.70193
29575.97913
29575.4447
29575.09231
29574.91773
-0.03845307077
-0.04806254942
-0.05508273074
-0.0737617622
-0.08468248674
-0.1305857203
-0.3444735628
0.02730245266
27280.20063
27667.79305
28025.94079
28342.11297
28610.78185
28832.54244
29011.49433
29153.31959
29264.05833
29349.42025
29414.45629
29463.44996
29499.93088
29526.74829
29546.16752
29559.96883
29569.5385
29575.94793
29580.01982
29582.38223
29583.51194
29583.76882
29583.42286
29582.67525
29581.6747
29580.53007
29579.32014
29578.10106
29576.91207
29575.77986
29574.72191
29573.74903
29572.86725
29572.07926
29571.38555
29570.78515
29570.2763
29569.85685
29569.52464
29569.27767
29569.11435
29569.03353
-0.02788093563
-0.0339389327
-0.03727589963
-0.05711067865
-0.03239841179
-0.03100136283
-0.2258931945
-0.2808331867
27278.12742
27606.35216
27915.93438
28197.34506
28444.77663
28656.69801
28834.51393
28981.33458
29101.0472
29197.69866
29275.12904
29336.78371
29385.64134
29424.21127
29454.5682
29478.40378
29497.08307
29511.69881
29523.12047
29532.0366
29538.99048
29544.40959
29548.62953
29551.9133
29554.46675
29556.45081
29557.99122
29559.18609
29560.112
29560.82866
29561.38258
29561.81002
29562.13917
29562.39195
29562.58539
29562.73264
29562.84383
29562.9267
29562.98706
29563.02918
29563.05605
29563.06959
-0.02134903425
-0.02231481959
-0.02678188747
-0.03613590733
0.01384258225
0.06959912986
-0.007710149766
-0.2228888328
27277.93979
27562.11971
27834.07665
28086.53516
28314.26724
28514.95089
28688.52538
28836.45736
28961.0989
29065.20084
29151.58064
29222.91771
29281.64262
29329.8902
29369.49293
29401.99755
29428.69353
29450.64598
29468.72875
29483.65521
29496.00574
29506.25146
29514.77425
29521.88354
29527.83007
29532.81713
29537.00974
29540.54203
29543.52317
29546.04218
29548.17176
29549.97133
29551.48951
29552.76609
29553.83354
29554.71833
29555.44184
29556.02121
29556.46988
29556.79811
29557.0133
29557.12026
-0.01678000529
-0.01302342929
-0.02204233882
-0.009009445604
0.07049351612
0.1798119965
0.2249180164
0.02613090664
27278.24811
27529.0497
27771.70258
28000.43739
28210.79529
28400.30568
28568.1754
28714.86913
28841.69051
28950.42655
29043.07699
29121.66621
29188.12368
29244.21644
29291.51815
29331.40225
29365.0497
29393.46494
29417.49536
29437.85172
29455.12776
29469.81816
29482.33437
29493.01845
29502.15476
29509.97981
29516.69053
29522.45106
29527.39843
29531.64714
29535.29297
29538.41608
29541.08354
29543.35144
29545.26648
29546.86742
29548.18616
29549.24858
29550.07532
29550.68225
29551.08096
29551.279
-0.01296101689
-0.009303549879
-0.01157481283
0.03766417916
0.1578226167
0.2870196826
0.3781029935
0.2611488676
27277.03335
27503.33849
27723.23638
27932.70685
28128.16279
28307.29527
28468.99768
28613.15137
28740.36705
28851.73844
28948.63583
29032.54814
29104.97136
29167.33573
29220.96304
29267.04562
29306.6401
29340.6707
29369.93797
29395.13046
29416.83734
29435.56093
29451.72851
29465.70304
29477.79262
29488.25875
29497.32344
29505.17523
29511.97436
29517.85701
29522.93894
29527.31853
29531.07924
29534.29175
29537.01564
29539.30088
29541.18894
29542.71382
29543.90274
29544.77681
29545.35149
29545.63687
-0.01624769316
-0.008274265714
0.009721676088
0.1100614725
0.2629385869
0.3662892873
0.4212226007
0.3951031876
27276.78504
27483.41561
27685.193
27878.98469
28061.84808
28231.71038
28387.36553
28528.36977
28654.88712
28767.52447
28867.1805
28954.92037
29031.87937
29099.19374
29157.95444
29209.17891
29253.79624
29292.64163
29326.45722
29355.89669
29381.53207
29403.86157
29423.31758
29440.27447
29455.05584
29467.94107
29479.17119
29488.95405
29497.46877
29504.86961
29511.28931
29516.84193
29521.62524
29525.72279
29529.20559
29532.13365
29534.55708
29536.51718
29538.04719
29539.17298
29539.91351
29540.28124
-0.048930049
-0.004078583871
0.04781527735
0.1967862399
0.3500931055
0.4106070596
0.4069571499
0.4289852994
27276.69527
27467.81588
27655.13298
27836.18675
28008.53045
28170.32922
28320.38174
28458.07339
28583.28636
28696.29169
28797.64178
28888.07433
28968.43318
29039.6068
29102.48358
29157.92098
29206.726
29249.6441
29287.35436
29320.46879
29349.5345
29375.03753
29397.40762
29417.02331
29434.21711
29449.28042
29462.46817
29474.003
29484.07905
29492.86537
29500.50882
29507.13673
29512.85912
29517.77068
29521.95244
29525.4732
29528.39073
29530.75282
29532.59807
29533.95659
29534.85053
29535.29445
-0.1010454178
0.01921828224
0.1108172326
0.2792844503
0.396423369
0.4277135201
0.4001153136
0.4242822325
27276.62952
27455.53179
27631.33539
27802.09605
27965.7549
28120.69179
28265.75681
28400.25432
28523.89247
28636.71395
28739.02084
28831.30266
28914.17314
28988.31788
29054.45345
29113.29691
29165.54423
29211.85605
29252.84901
29289.09134
29321.10137
29349.34824
29374.25389
29396.1959
29415.51075
29432.49725
29447.42002
29460.51269
29471.98109
29482.00603
29490.74593
29498.33912
29504.90592
29510.5505
29515.36244
29519.41813
29522.782
29525.50748
29527.63786
29529.20699
29530.2398
29530.75268
-0.1263398594
0.07620360834
0.1943029276
0.3444194214
0.4105665505
0.4208830946
0.4084500871
0.4155396847
27276.59338
27445.88577
27612.58054
27775.10522
27931.69929
28080.92434
28221.69786
28353.29349
28475.31458
28587.65058
28690.42513
28783.94284
28868.63962
28945.03913
29013.71663
29075.2703
29130.2994
29179.38838
29223.09592
29261.94785
29296.43311
29327.00193
29354.06562
29377.99751
29399.13461
29417.77975
29434.2039
29448.64863
29461.32859
29472.43378
29482.13182
29490.56998
29497.87707
29504.1651
29509.53083
29514.05706
29517.81384
29520.85942
29523.24111
29524.99593
29526.1512
29526.72493
-0.09790504694
0.1562101271
0.2756692023
0.383761053
0.4182377122
0.4103168956
0.4114008113
0.4071691235
27276.56884
27438.40293
27597.99585
27754.04365
27905.01124
28049.60705
28186.81563
28315.90633
28436.42126
28548.14849
28651.08638
28745.40437
28831.40406
28909.4833
28980.10473
29043.7695
29100.99604
29152.30361
29198.19997
29239.17265
29275.68299
29308.16249
29337.01092
29362.59572
29385.25231
29405.28514
29422.96913
29438.55133
29452.25286
29464.2707
29474.77964
29483.93401
29491.86938
29498.70413
29504.54085
29509.46761
29513.55907
29516.87746
29519.47341
29521.38662
29522.64638
29523.27201
-0.005001503392
0.2408021708
0.3330654253
0.3870853548
0.4011157984
0.4025521381
0.4062422938
0.3964078174
27276.54759
27432.74911
27586.95654
27738.06131
27884.69392
28025.67596
28160.0504
28287.09426
28406.31523
28517.43559
28620.36767
28715.1846
28802.08958
28881.38608
28953.45047
29018.70807
29077.61294
29130.63143
29178.2292
29220.86136
29258.96534
29292.95581
29323.22162
29350.12394
29373.99562
29395.14128
29413.83807
29430.33669
29444.86282
29457.61857
29468.7841
29478.51912
29486.96443
29494.24333
29500.463
29505.71563
29510.07955
29513.62014
29516.39068
29518.43296
29519.7779
29520.44585
0.148239633
0.3263950379
0.371505301
0.3740675981
0.370064041
0.387459222
0.3980963048
0.3868109948
27276.52792
27428.68934
27579.02026
27726.55042
27870.02637
28008.35172
28140.61507
28266.10457
28384.30949
28494.91088
28597.76425
28692.87713
28780.38416
28860.52175
28933.60396
29000.00047
29060.11746
29114.38132
29163.22546
29207.07981
29246.36279
29281.47549
29312.79756
29340.68461
29365.46678
29387.4482
29406.9071
29424.0965
29439.24514
29452.55871
29464.22114
29474.39603
29483.22798
29490.84391
29497.35434
29502.85454
29507.42553
29511.13507
29514.03839
29516.17888
29517.58862
29518.28878
0.352091592
0.4067356278
0.3987242285
0.3644624067