/*--------------------------------*- C++ -*----------------------------------*\
  =========                 |
  \\      /  F ield         | OpenFOAM: The Open Source CFD Toolbox
   \\    /   O peration     | Website:  https://openfoam.org
    \\  /    A nd           | Version:  6
     \\/     M anipulation  |
\*---------------------------------------------------------------------------*/
FoamFile
{
    version     2.0;
    format      ascii;
    class       surfaceScalarField;
    location    "0.15";
    object      phi;
}
// * * * * * * * * * * * * * * * * * * * * * * * * * * * * * * * * * * * * * //

dimensions      [0 3 -1 0 0 0 0];

internalField   nonuniform List<scalar> 
4900
(
-6.210105359e-08
-1.086247172e-07
3.194091727e-09
-6.529514532e-08
2.856534063e-08
-2.53712489e-08
3.426905389e-08
-5.703713258e-09
2.990290712e-08
4.366146775e-09
1.721798266e-08
1.268492446e-08
1.074226354e-09
1.614375632e-08
-5.881796786e-18
1.074226368e-09
-1.478637866e-20
2.675804397e-24
-1.465803683e-20
-1.283418203e-22
-1.440596277e-20
-2.520788154e-22
-1.403945136e-20
-3.665220948e-22
-1.357119167e-20
-4.682759678e-22
-1.301643895e-20
-5.547744368e-22
-1.239199626e-20
-6.244697894e-22
-1.171520022e-20
-6.768284954e-22
-1.100301851e-20
-7.122194746e-22
-1.027132277e-20
-7.317387733e-22
-9.534363794e-21
-7.370072125e-22
-8.804447296e-21
-7.299698826e-22
-8.09178831e-21
-7.127174506e-22
-7.404511273e-21
-6.873405065e-22
-6.748758788e-21
-6.558208772e-22
-6.128873453e-21
-6.199585603e-22
-5.547621711e-21
-5.813297046e-22
-5.006434756e-21
-5.412695504e-22
-4.505647906e-21
-5.008739676e-22
-4.044725681e-21
-4.610137471e-22
-3.622464761e-21
-4.223567223e-22
-3.23717085e-21
-3.8539386e-22
-2.886808327e-21
-3.504664818e-22
-2.569123475e-21
-3.177926749e-22
-2.281743334e-21
-2.874916742e-22
-2.022252866e-21
-2.596055538e-22
-1.788253374e-21
-2.34117966e-22
-1.577405129e-21
-2.109699361e-22
-1.387456965e-21
-1.900728944e-22
-1.21626533e-21
-1.713192216e-22
-1.06180496e-21
-1.545906272e-22
-9.22173004e-22
-1.397646879e-22
-7.955881561e-22
-1.267198584e-22
-6.803860029e-22
-1.153392396e-22
-5.750116037e-22
-1.055133555e-22
-4.780100621e-22
-9.714215788e-23
-3.880156751e-22
-9.013645037e-23
-3.037400589e-22
-8.441891076e-23
-2.239594316e-22
-7.992493535e-23
-1.475007725e-22
-7.660376075e-23
-7.322515415e-23
-7.442129287e-23
-7.33711784e-23
-1.182970753e-07
-1.562548329e-07
-5.865555854e-08
-1.249366621e-07
-1.504837179e-08
-6.897843564e-08
2.89667043e-09
-2.364875547e-08
5.286575896e-09
1.976241321e-09
2.727188736e-09
1.524431164e-08
-9.718285988e-10
1.984277367e-08
-5.407458335e-18
1.023977892e-10
-1.491562718e-20
-3.345775084e-25
-1.478173508e-20
-2.622434168e-22
-1.452038899e-20
-5.134448034e-22
-1.414119237e-20
-7.457488719e-22
-1.365768236e-20
-9.51825926e-22
-1.308613159e-20
-1.126374792e-21
-1.244435677e-20
-1.266303756e-21
-1.175059664e-20
-1.370657257e-21
-1.102254588e-20
-1.440348269e-21
-1.02766009e-20
-1.477771085e-21
-9.527336885e-21
-1.486367748e-21
-8.787205288e-21
-1.470207069e-21
-8.066421248e-21
-1.433616009e-21
-7.373000619e-21
-1.380884437e-21
-6.712904328e-21
-1.316049091e-21
-6.090251252e-21
-1.242752007e-21
-5.507567015e-21
-1.164162571e-21
-4.966043507e-21
-1.082949749e-21
-4.465791005e-21
-1.001291008e-21
-4.006071092e-21
-9.209058216e-22
-3.585503587e-21
-8.431037756e-22
-3.202244545e-21
-7.688395859e-22
-2.8541351e-21
-6.987694862e-22
-2.538822668e-21
-6.333052669e-22
-2.253857117e-21
-5.726637024e-22
-1.996764969e-21
-5.169101978e-22
-1.765104888e-21
-4.659962568e-22
-1.556507536e-21
-4.197908924e-22
-1.368702689e-21
-3.781064143e-22
-1.199536113e-21
-3.407191999e-22
-1.046978403e-21
-3.073861246e-22
-9.091275816e-22
-2.778573263e-22
-7.842069826e-22
-2.518859421e-22
-6.705596125e-22
-2.292353928e-22
-5.666399557e-22
-2.096847182e-22
-4.710039659e-22
-1.930323951e-22
-3.822978148e-22
-1.790990048e-22
-2.99245844e-22
-1.67729052e-22
-2.206381395e-22
-1.587921866e-22
-1.453184652e-22
-1.521839695e-22
-7.217503684e-23
-1.478258655e-22
-1.456614987e-22
-1.465832828e-07
-1.726063257e-07
-9.974063469e-08
-1.717793102e-07
-4.900433069e-08
-1.197147396e-07
-1.703084555e-08
-5.56222406e-08
-8.905930057e-09
-6.14867416e-09
-5.920953152e-09
1.225933475e-08
-1.149560858e-09
1.507138139e-08
-6.633962043e-18
-1.047163047e-09
-1.517664842e-20
-5.660534223e-24
-1.503288179e-20
-4.060178171e-22
-1.47526564e-20
-7.936867649e-22
-1.434724293e-20
-1.151187775e-21
-1.383221577e-20
-1.466887017e-21
-1.322605577e-20
-1.732577113e-21
-1.254871483e-20
-1.943695357e-21
-1.182029962e-20
-2.099131399e-21
-1.105998591e-20
-2.200729113e-21
-1.028521791e-20
-2.25261432e-21
-9.511197847e-21
-2.260471063e-21
-8.750635687e-21
-2.230860393e-21
-8.013709872e-21
-2.170640781e-21
-7.308183496e-21
-2.086517436e-21
-6.639623107e-21
-1.984723629e-21
-6.011675176e-21
-1.870821462e-21
-5.426365095e-21
-1.74960139e-21
-4.884393377e-21
-1.625057246e-21
-4.38541238e-21
-1.500414642e-21
-3.928273832e-21
-1.378193669e-21
-3.511242689e-21
-1.260290675e-21
-3.132176514e-21
-1.148067758e-21
-2.788671973e-21
-1.042442038e-21
-2.478181438e-21
-9.43969589e-22
-2.198103376e-21
-8.529210815e-22
-1.945850379e-21
-7.693477838e-22
-1.71889859e-21
-6.931376404e-22
-1.514821944e-21
-6.240618626e-22
-1.331314263e-21
-5.618128659e-22
-1.166201792e-21
-5.060345926e-22
-1.017448373e-21
-4.56346317e-22
-8.831550171e-22
-4.123609994e-22
-7.615553309e-22
-3.736991736e-22
-6.510079325e-22
-3.399992436e-22
-5.499867381e-22
-3.109249451e-22
-4.570698013e-22
-2.861706127e-22
-3.70927215e-22
-2.65464784e-22
-2.903084636e-22
-2.485725686e-22
-2.140295349e-22
-2.352971099e-22
-1.409600416e-22
-2.254803407e-22
-7.001027049e-23
-2.190030437e-22
-2.157840739e-22
-1.528719268e-07
-1.635108266e-07
-1.290297299e-07
-1.956215071e-07
-8.091456309e-08
-1.678299064e-07
-3.325367049e-08
-1.032831332e-07
-1.052440621e-08
-2.887793843e-08
-6.300518044e-09
8.035446602e-09
-3.05396796e-10
9.076260163e-09
-8.829471442e-18
-1.352559816e-09
-1.558003239e-20
-8.064973941e-24
-1.542048125e-20
-5.655766035e-22
-1.511009925e-20
-1.104085034e-21
-1.466290112e-20
-1.598410881e-21
-1.409788303e-20
-2.03193846e-21
-1.343716844e-20
-2.39333333e-21
-1.270416007e-20
-2.676753572e-21
-1.192191794e-20
-2.88143152e-21
-1.111189952e-20
-3.010813614e-21
-1.029310745e-20
-3.071480462e-21
-9.481621466e-21
-3.072039017e-21
-8.690449603e-21
-3.02212203e-21
-7.9296177e-21
-2.931570143e-21
-7.206417509e-21
-2.809822644e-21
-6.525744904e-21
-2.665508671e-21
-5.890475085e-21
-2.506210991e-21
-5.301837091e-21
-2.338366209e-21
-4.759763385e-21
-2.16726472e-21
-4.263200898e-21
-1.997117658e-21
-3.810377657e-21
-1.831164011e-21
-3.399024365e-21
-1.671797436e-21
-3.026553581e-21
-1.520698167e-21
-2.690200882e-21
-1.378960294e-21
-2.387133191e-21
-1.247208534e-21
-2.114529521e-21
-1.12570146e-21
-1.869639094e-21
-1.01442012e-21
-1.649821276e-21
-9.131423055e-22
-1.452571168e-21
-8.215034834e-22
-1.275534086e-21
-7.390458469e-22
-1.116511581e-21
-6.652570931e-22
-9.734611582e-22
-5.996005363e-22
-8.444913832e-22
-5.41538067e-22
-7.278537196e-22
-4.90547316e-22
-6.219321057e-22
-4.461342053e-22
-5.252310488e-22
-4.078418965e-22
-4.36362799e-22
-3.752569761e-22
-3.540340165e-22
-3.480135674e-22
-2.77032215e-22
-3.257959225e-22
-2.042121653e-22
-3.083399239e-22
-1.344823204e-22
-2.954338188e-22
-6.679108574e-23
-2.869184326e-22
-2.82687191e-22
-1.382574366e-07
-1.350433123e-07
-1.41437633e-07
-1.924413107e-07
-1.088194212e-07
-2.004481183e-07
-5.699031393e-08
-1.551122404e-07
-1.368758475e-08
-7.218066759e-08
-2.016134712e-09
-3.636003416e-09
-3.143767529e-10
7.374502231e-09
-1.166872588e-17
-1.666936533e-09
-1.614169176e-20
-9.888782164e-24
-1.595889327e-20
-7.483827292e-22
-1.560434204e-20
-1.458652499e-21
-1.509637201e-20
-2.106405849e-21
-1.445924866e-20
-2.66909511e-21
-1.372058481e-20
-3.132038748e-21
-1.290885521e-20
-3.488532935e-21
-1.205133291e-20
-3.739011733e-21
-1.117260937e-20
-3.889603125e-21
-1.029371415e-20
-3.950449648e-21
-9.431753678e-21
-3.934081346e-21
-8.599944917e-21
-3.854020439e-21
-7.807913357e-21
-3.723699026e-21
-7.062141464e-21
-3.555699408e-21
-6.366479424e-21
-3.361282995e-21
-5.722656772e-21
-3.150153192e-21
-5.130756674e-21
-2.930392961e-21
-4.589632533e-21
-2.70852245e-21
-4.097259233e-21
-2.489631304e-21
-3.651019494e-21
-2.277550659e-21
-3.247930576e-21
-2.075039624e-21
-2.884818839e-21
-1.883969321e-21
-2.55845042e-21
-1.705494055e-21
-2.265626025e-21
-1.540203964e-21
-2.003247072e-21
-1.388256895e-21
-1.768359458e-21
-1.249489411e-21
-1.558180165e-21
-1.123508208e-21
-1.37011097e-21
-1.009763949e-21
-1.201742649e-21
-9.076098197e-22
-1.050852333e-21
-8.163471517e-22
-9.153960765e-22
-7.352603325e-22
-7.934981612e-22
-6.63643014e-22
-6.834383241e-22
-6.008173668e-22
-5.836377294e-22
-5.461478792e-22
-4.926442987e-22
-4.990509497e-22
-4.091178114e-22
-4.590013016e-22
-3.318150506e-22
-4.255360502e-22
-2.595751563e-22
-3.982570866e-22
-1.913052604e-22
-3.768322975e-22
-1.259663944e-22
-3.609960277e-22
-6.255957783e-23
-3.505491109e-22
-3.453587799e-22
-1.068390155e-07
-9.503941023e-08
-1.349011341e-07
-1.643791921e-07
-1.257283005e-07
-2.096209519e-07
-8.297458484e-08
-1.97865956e-07
-2.905590322e-08
-1.260993492e-07
-6.181898075e-10
-3.20737168e-08
-7.053129183e-10
7.461625378e-09
-1.451475658e-17
-2.372249404e-09
-1.688527455e-20
-1.41907922e-23
-1.666903366e-20
-9.646312554e-22
-1.62519827e-20
-1.875719696e-21
-1.565898784e-20
-2.699425641e-21
-1.492215873e-20
-3.405957512e-21
-1.407708111e-20
-3.977157928e-21
-1.315936459e-20
-4.406299207e-21
-1.220197496e-20
-4.696459256e-21
-1.123351851e-20
-4.858125541e-21
-1.027741344e-20
-4.906628672e-21
-9.351759927e-21
-4.859816704e-21
-8.469686424e-21
-4.736183577e-21
-7.639970062e-21
-4.553512698e-21
-6.867773589e-21
-4.32800074e-21
-6.15539006e-21
-4.073778795e-21
-5.502929165e-21
-3.802733625e-21
-4.908911633e-21
-3.524537137e-21
-4.370760562e-21
-3.2468071e-21
-3.8851924e-21
-2.975339801e-21
-3.448517828e-21
-2.714372129e-21
-3.056866056e-21
-2.466844657e-21
-2.706346531e-21
-2.234648256e-21
-2.393161125e-21
-2.018844796e-21
-2.113678144e-21
-1.819857971e-21
-1.864477624e-21
-1.63763389e-21
-1.64237551e-21
-1.471773196e-21
-1.444432673e-21
-1.321637647e-21
-1.267953348e-21
-1.186434537e-21
-1.110476402e-21
-1.06528241e-21
-9.697619817e-22
-9.572613088e-22
-8.437753678e-22
-8.61450479e-22
-7.306693353e-22
-7.769560714e-22
-6.287659173e-22
-7.029309914e-22
-5.365381725e-22
-6.385886955e-22
-4.525923352e-22
-5.83212401e-22
-3.756505686e-22
-5.36160897e-22
-3.045344253e-22
-4.968719048e-22
-2.381490372e-22
-4.648637321e-22
-1.754679921e-22
-4.397358064e-22
-1.155188108e-22
-4.211685359e-22
-5.736891441e-23
-4.08922852e-22
-4.028397068e-22
-6.630879665e-08
-5.306847168e-08
-1.116091614e-07
-1.190788273e-07
-1.276731799e-07
-1.935569334e-07
-1.03501912e-07
-2.220372239e-07
-5.219547955e-08
-1.774057816e-07
-8.030266001e-09
-7.623893031e-08
-1.070223398e-09
5.015828206e-10
-1.601231083e-17
-3.442472745e-09
-1.784389418e-20
-2.26755384e-23
-1.757994595e-20
-1.228587126e-21
-1.707553976e-20
-2.380142126e-21
-1.636542888e-20
-3.409561442e-21
-1.549332543e-20
-4.27809425e-21
-1.450623768e-20
-4.964287224e-21
-1.344957699e-20
-5.463009648e-21
-1.236371783e-20
-5.782376302e-21
-1.128211084e-20
-5.93979849e-21
-1.023069392e-20
-5.958119532e-21
-9.228215718e-21
-5.862376747e-21
-8.287096544e-21
-5.677392378e-21
-7.414528786e-21
-5.426177761e-21
-6.613611109e-21
-5.129023272e-21
-5.884393282e-21
-4.803108891e-21
-5.224770797e-21
-4.462475644e-21
-4.631210605e-21
-4.118223971e-21
-4.099314472e-21
-3.778836813e-21
-3.624239452e-21
-3.450555158e-21
-3.200999826e-21
-3.137758657e-21
-2.824674977e-21
-2.843322771e-21
-2.490545199e-21
-2.568937448e-21
-2.194174038e-21
-2.315381298e-21
-1.931452071e-21
-2.082750972e-21
-1.698613742e-21
-1.870648702e-21
-1.492235998e-21
-1.678332619e-21
-1.309225156e-21
-1.504835102e-21
-1.146796621e-21
-1.349054346e-21
-1.002450696e-21
-1.209823991e-21
-8.739466814e-22
-1.085965071e-21
-7.592767232e-22
-9.763239809e-22
-6.566403211e-22
-8.797995096e-22
-5.64420036e-22
-7.953614942e-22
-4.811586704e-22
-7.220631436e-22
-4.055380185e-22
-6.590486775e-22
-3.363591664e-22
-6.055575877e-22
-2.725242483e-22
-5.609265432e-22
-2.130195118e-22
-5.245897339e-22
-1.568995243e-22
-4.960782643e-22
-1.032723299e-22
-4.750190629e-22
-5.128537126e-23
-4.611336602e-22
-4.542370919e-22
-2.612787153e-08
-1.967742646e-08
-7.729556123e-08
-6.791113758e-08
-1.149224274e-07
-1.559300672e-07
-1.136144389e-07
-2.233452123e-07
-7.254365238e-08
-2.184765681e-07
-2.009632565e-08
-1.28686257e-07
-7.508963747e-10
-1.88438464e-08
-1.445377021e-17
-4.193369061e-09
-1.90630864e-20
-3.208654234e-23
-1.873123507e-20
-1.560446096e-21
-1.810476533e-20
-3.006628092e-21
-1.723385435e-20
-4.280497348e-21
-1.617949262e-20
-5.332489254e-21
-1.500500053e-20
-6.138820847e-21
-1.376903057e-20
-6.699029347e-21
-1.252125414e-20
-7.030210605e-21
-1.130055701e-20
-7.160561561e-21
-1.013507523e-20
-7.123675248e-21
-9.043346415e-21
-6.954187389e-21
-8.035983408e-21
-6.684845003e-21
-7.117460237e-21
-6.344798227e-21
-6.287766977e-21
-5.958821378e-21
-5.543815581e-21
-5.547172549e-21
-4.88056158e-21
-5.125849173e-21
-4.291854688e-21
-4.707057501e-21
-3.771054746e-21
-4.299770331e-21
-3.311457352e-21
-3.910292887e-21
-2.906572409e-21
-3.5427905e-21
-2.550293561e-21
-3.199754884e-21
-2.236989543e-21
-2.882400882e-21
-1.961541731e-21
-2.590994453e-21
-1.719346095e-21
-2.325117645e-21
-1.506292823e-21
-2.083878461e-21
-1.318732973e-21
-1.866074152e-21
-1.153438569e-21
-1.670316124e-21
-1.007560369e-21
-1.495123826e-21
-8.785860065e-22
-1.338994015e-21
-7.643000833e-22
-1.200450749e-21
-6.627470989e-22
-1.078080516e-21
-5.721975696e-22
-9.705560823e-22
-4.911174044e-22
-8.766518845e-22
-4.181403998e-22
-7.952532378e-22
-3.520436102e-22
-7.253610984e-22
-2.917252911e-22
-6.660937516e-22
-2.361850928e-22
-6.166864674e-22
-1.845061752e-22
-5.764899217e-22
-1.358389291e-22
-5.449679847e-22
-8.938600107e-23
-5.216953266e-22
-4.438834072e-23
-5.063551729e-22
-4.987374455e-22
2.63467711e-09
-2.897483472e-09
-4.01240879e-08
-2.515237256e-08
-9.066847236e-08
-1.053856828e-07
-1.12263686e-07
-2.017499987e-07
-8.78420322e-08
-2.428982218e-07
-3.455807238e-08
-1.819702168e-07
-6.891719599e-11
-5.333300154e-08
-8.382238046e-18
-4.262286209e-09
-2.060981435e-20
-5.933368541e-23
-2.017702808e-20
-1.993240002e-21
-1.937838673e-20
-3.805285668e-21
-1.82857272e-20
-5.373181789e-21
-1.698582167e-20
-6.632428051e-21
-1.556529428e-20
-7.559389762e-21
-1.410035262e-20
-8.164020722e-21
-1.265177294e-20
-8.478848149e-21
-1.126384382e-20
-8.548556607e-21
-9.965751098e-21
-8.421841882e-21
-8.774149808e-21
-8.145870488e-21
-7.696060554e-21
-7.763023857e-21
-6.731584739e-21
-7.309371322e-21
-5.876198198e-21
-6.81431275e-21
-5.122553295e-21
-6.3009297e-21
-4.461814825e-21
-5.78670716e-21
-3.884599087e-21
-5.284399867e-21
-3.381598165e-21
-4.80290482e-21
-2.94396745e-21
-4.34806393e-21
-2.563542889e-21
-3.923361955e-21
-2.232940903e-21
-3.53051013e-21
-1.945581034e-21
-3.169920163e-21
-1.695660469e-21
-2.841080358e-21
-1.478100901e-21
-2.542848249e-21
-1.288481573e-21
-2.273674275e-21
-1.122967542e-21
-2.031769867e-21
-9.782387528e-22
-1.815231531e-21
-8.514231768e-22
-1.622130682e-21
-7.400356701e-22
-1.450577184e-21
-6.41923212e-22
-1.298762963e-21
-5.552165342e-22
-1.164990747e-21
-4.782877956e-22
-1.047691866e-21
-4.097137598e-22
-9.454361469e-22
-3.482438494e-22
-8.569362391e-22
-2.927724374e-22
-7.810481427e-22
-2.423147582e-22
-7.167692764e-22
-1.959858645e-22
-6.632350871e-22
-1.529821098e-22
-6.197149461e-22
-1.125646857e-22
-5.856078821e-22
-7.404479583e-23
-5.604385507e-22
-3.677008906e-23
-5.438537301e-22
-5.356195441e-22
1.514969251e-08
9.289634984e-10
-8.595798919e-09
-1.406881121e-09
-5.999968361e-08
-5.398179804e-08
-1.005972779e-07
-1.611524044e-07
-9.70339507e-08
-2.46461549e-07
-5.020672706e-08
-2.287974404e-07
-2.140181943e-09
-1.013995466e-07
1.992221492e-18
-6.402468132e-09
-2.256790289e-20
-1.827499647e-22
-2.198852755e-20
-2.572622976e-21
-2.094596041e-20
-4.847869022e-21
-1.9544855e-20
-6.774312098e-21
-1.791283274e-20
-8.264483562e-21
-1.61700875e-20
-9.302176503e-21
-1.44154032e-20
-9.918754721e-21
-1.272172472e-20
-1.017258447e-20
-1.113736487e-20
-1.013298236e-20
-9.689991626e-21
-9.869289016e-21
-8.391483585e-21
-9.444460314e-21
-7.242555102e-21
-8.912041919e-21
-6.236641665e-21
-8.315382016e-21
-5.36290266e-21
-7.688156567e-21
-4.608394605e-21
-7.055549985e-21
-3.959552082e-21
-6.435669183e-21
-3.403133301e-21
-5.84094526e-21
-2.926774739e-21
-5.279396935e-21
-2.519274062e-21
-4.755704921e-21
-2.170693144e-21
-4.272089756e-21
-1.872348393e-21
-3.82900813e-21
-1.616735527e-21
-3.425692431e-21
-1.397420617e-21
-3.060560601e-21
-1.208917986e-21
-2.731521907e-21
-1.046567647e-21
-2.436201094e-21
-9.064195604e-22
-2.172099631e-21
-7.85128451e-22
-1.936709253e-21
-6.798606352e-22
-1.727589774e-21
-5.882129585e-22
-1.542420519e-21
-5.081431487e-22
-1.379032524e-21
-4.379104988e-22
-1.235426945e-21
-3.760256364e-22
-1.109783769e-21
-3.212081287e-22
-1.000463877e-21
-2.723507371e-22
-9.060067174e-22
-2.284892457e-22
-8.251252618e-22
-1.887769134e-22
-7.566994493e-22
-1.524627166e-22
-6.997690044e-22
-1.188726672e-22
-6.535262594e-22
-8.739358667e-23
-6.173094298e-22
-5.745880486e-23
-5.905966602e-22
-2.853532001e-23
-5.730010587e-22
-5.642668678e-22
1.943671211e-08
1.147917876e-09
1.164520475e-08
6.384626246e-09
-2.844416298e-08
-1.389243029e-08
-8.115861341e-08
-1.08437954e-07
-1.002053646e-07
-2.274147977e-07
-6.636265741e-08
-2.626401476e-07
-9.704706602e-09
-1.580574974e-07
1.351864584e-17
-1.610717476e-08
-2.499759861e-20
-8.086517221e-23
-2.426276673e-20
-3.307462483e-21
-2.287196506e-20
-6.238686893e-21
-2.103494461e-20
-8.611357438e-21
-1.895068176e-20
-1.034877964e-20
-1.678695698e-20
-1.146594276e-20
-1.466957917e-20
-1.20361822e-20
-1.268246915e-20
-1.21597523e-20
-1.087398628e-20
-1.19415311e-20
-9.265430721e-21
-1.147791844e-20
-7.859282048e-21
-1.085069074e-20
-6.646063713e-21
-1.012534981e-20
-5.609542268e-21
-9.352000692e-21
-4.730386729e-21
-8.567416892e-21
-3.988576056e-21
-7.797472864e-21
-3.364868329e-21
-7.059496388e-21
-2.841608439e-21
-6.364331741e-21
-2.403093872e-21
-5.718045036e-21
-2.035661211e-21
-5.123277879e-21
-1.7276077e-21
-4.580290135e-21
-1.469024796e-21
-4.087744268e-21
-1.251593249e-21
-3.643283367e-21
-1.06837005e-21
-3.243949119e-21
-9.135846799e-22
-2.886478293e-21
-7.824536401e-22
-2.567508602e-21
-6.710169774e-22
-2.28371796e-21
-5.759973644e-22
-2.031915468e-21
-4.946805308e-22
-1.809097873e-21
-4.248149641e-22
-1.612481735e-21
-3.645284646e-22
-1.439518766e-21
-3.122591227e-22
-1.287899826e-21
-2.666984371e-22
-1.155551486e-21
-2.267445301e-22
-1.040627997e-21
-1.914636776e-22
-9.415006467e-22
-1.600586286e-22
-8.567459286e-22
-1.318424274e-22
-7.851334807e-22
-1.062166604e-22
-7.256144815e-22
-8.265322643e-23
-6.773109464e-22
-6.067888108e-23
-6.39506231e-22
-3.986192355e-23
-6.116369339e-22
-1.980049223e-23
-5.932863221e-22
-5.841793554e-22
2.242810345e-08
1.461238372e-09
2.167299979e-08
7.13972991e-09
-8.585161563e-10
8.639085666e-09
-5.634116143e-08
-5.295530867e-08
-9.742148821e-08
-1.86334471e-07
-8.269409375e-08
-2.773675421e-07
-2.372116969e-08
-2.170304215e-07
2.119615247e-17
-3.982834452e-08
-2.830951409e-20
-2.380463712e-22
-2.719315229e-20
-4.423831901e-21
-2.524425157e-20
-8.187603809e-21
-2.277244048e-20
-1.10831934e-20
-2.006821037e-20
-1.305304296e-20
-1.735769688e-20
-1.41764977e-20
-1.479367322e-20
-1.46002555e-20
-1.246472982e-20
-1.448875347e-20
-1.041078256e-20
-1.39955442e-20
-8.638530703e-21
-1.325024411e-20
-7.134191838e-21
-1.235511133e-20
-5.87289867e-21
-1.138673249e-20
-4.825088021e-21
-1.039990854e-20
-3.960529491e-21
-9.432080178e-21
-3.250653919e-21
-8.507460613e-21
-2.669734101e-21
-7.640535657e-21
-2.195335006e-21
-6.838857402e-21
-1.808328058e-21
-6.105185494e-21
-1.492666808e-21
-5.439079404e-21
-1.235050066e-21
-4.838053723e-21
-1.024549113e-21
-4.298398436e-21
-8.522426875e-22
-3.815749163e-21
-7.108824111e-22
-3.385474697e-21
-5.945983745e-22
-3.002933328e-21
-4.986470389e-22
-2.663636389e-21
-4.191994622e-22
-2.363347188e-21
-3.531658457e-22
-2.098135671e-21
-2.98051644e-22
-1.864403326e-21
-2.518404431e-22
-1.658888569e-21
-2.128991512e-22
-1.478659785e-21
-1.799015486e-22
-1.321100952e-21
-1.517667989e-22
-1.183893252e-21
-1.27610058e-22
-1.064994936e-21
-1.067028036e-22
-9.62620963e-22
-8.844093306e-23
-8.752234016e-22
-7.231903515e-23
-8.014731935e-22
-5.79095395e-23
-7.402436714e-22
-4.484569203e-23
-6.905960308e-22
-3.280749871e-23
-6.51766864e-22
-2.150993548e-23
-6.231577969e-22
-1.069284136e-23
-6.043272318e-22
-5.949841816e-22
2.619025734e-08
2.277082411e-09
2.603085296e-08
7.299134283e-09
1.864940049e-08
1.602053813e-08
-2.763881228e-08
-6.667095915e-09
-8.698635366e-08
-1.269869296e-07
-9.727422795e-08
-2.670796678e-07
-4.330438772e-08
-2.710002618e-07
2.335100429e-17
-8.313273234e-08
-3.267839362e-20
-6.139181706e-22
-3.095582865e-20
-6.146404489e-21
-2.813955184e-20
-1.100389679e-20
-2.474268431e-20
-1.448008577e-20
-2.119239674e-20
-1.660336371e-20
-1.77822758e-20
-1.758666005e-20
-1.468293853e-20
-1.769964237e-20
-1.197216863e-20
-1.71995811e-20
-9.665993989e-21
-1.630178464e-20
-7.743781178e-21
-1.51725307e-20
-6.166087334e-21
-1.393288685e-20
-4.886262218e-21
-1.266664708e-20
-3.857380966e-21
-1.142888695e-20
-3.035982541e-21
-1.025358332e-20
-2.38376686e-21
-9.159788437e-21
-1.86806974e-21
-8.156352196e-21
-1.46166096e-21
-7.245392717e-21
-1.142209581e-21
-6.424770356e-21
-8.916225997e-22
-5.689806632e-21
-6.953729676e-22
-5.034450175e-21
-5.418766863e-22
-4.452047907e-21
-4.219450102e-22
-3.935840186e-21
-3.283185927e-22
-3.479266393e-21
-2.552802437e-22
-3.076142654e-21
-1.983381785e-22
-2.720754885e-21
-1.539699434e-22
-2.407897053e-21
-1.194171829e-22
-2.132874998e-21
-9.252222046e-23
-1.891489519e-21
-7.159857085e-23
-1.680007832e-21
-5.532871703e-23
-1.495129347e-21
-4.268363298e-23
-1.333949541e-21
-3.285955084e-23
-1.193924331e-21
-2.522834042e-23
-1.072836324e-21
-1.929859225e-23
-9.68763753e-22
-1.468508762e-23
-8.800524886e-22
-1.108481565e-23
-8.052912599e-22
-8.258079073e-24
-7.432900816e-22
-6.013531158e-24
-6.930617948e-22
-4.196221979e-24
-6.538065918e-22
-2.677914319e-24
-6.248993832e-22
-1.349067938e-24
-6.058798726e-22
-5.964452213e-22
3.145641595e-08
2.8318078e-09
3.062307296e-08
8.132477259e-09
3.036631794e-08
1.627729312e-08
2.735430976e-09
2.096379101e-08
-6.53973437e-08
-5.8854155e-08
-1.05252844e-07
-2.272241676e-07
-6.557188271e-08
-3.106812232e-07
2.686110882e-17
-1.487046151e-07
-3.856930811e-20
-1.209309932e-21
-3.581203439e-20
-8.903685815e-21
-3.161587787e-20
-1.520006946e-20
-2.686702228e-20
-1.922896617e-20
-2.217703869e-20
-2.129338042e-20
-1.789654327e-20
-2.186719683e-20
-1.418395361e-20
-2.141228158e-20
-1.10752039e-20
-2.030838847e-20
-8.537345935e-21
-1.883970835e-20
-6.504556866e-21
-1.72053935e-20
-4.900123441e-21
-1.553740191e-20
-3.648672376e-21
-1.391818758e-20
-2.6821729e-21
-1.239548354e-20
-1.94223212e-21
-1.099362878e-20
-1.380341357e-21
-9.721791304e-21
-9.570996568e-22
-8.579713278e-21
-6.410152621e-22
-7.561603613e-21
-4.072156298e-22
-6.658703438e-21
-2.362328893e-22
-5.860929589e-21
-1.129369021e-22
-5.157892953e-21
-2.563615469e-23
-4.539501817e-21
3.465971226e-23
-3.996295372e-21
7.483373002e-23
-3.519605664e-21
1.001335694e-22
-3.101613445e-21
1.145431372e-22
-2.735340858e-21
1.210731205e-22
-2.414608642e-21
1.219869728e-22
-2.133975393e-21
1.189759799e-22
-1.888669732e-21
1.132944476e-22
-1.67452189e-21
1.058638178e-22
-1.4878984e-21
9.735267143e-23
-1.325641875e-21
8.82380722e-23
-1.185016705e-21
7.885250736e-23
-1.063660913e-21
6.94197337e-23
-9.595439965e-22
6.008209535e-23
-8.709304076e-22
5.092130208e-23
-7.963482359e-22
4.197420977e-23
-7.345626376e-22
3.324479967e-23
-6.845535753e-22
2.471328983e-23
-6.454974748e-22
1.634311168e-23
-6.167524579e-22
8.086335269e-24
-5.978468647e-22
-5.884708426e-22
3.732397088e-08
2.99863794e-09
3.633857626e-08
9.117871862e-09
3.730263e-08
1.531323935e-08
2.937975053e-08
2.888667041e-08
-3.022842179e-08
7.540172516e-10
-9.93896902e-08
-1.580628993e-07
-8.54702815e-08
-3.246006319e-07
3.644952179e-17
-2.341748966e-07
-4.689600802e-20
-2.615266307e-21
-4.210788912e-20
-1.369181232e-20
-3.564627896e-20
-2.166169575e-20
-2.893379866e-20
-2.594147124e-20
-2.275316115e-20
-2.747405101e-20
-1.744352602e-20
-2.717687327e-20
-1.308148195e-20
-2.577437513e-20
-9.60752053e-21
-2.378240751e-20
-6.903691922e-21
-2.154360263e-20
-4.836978446e-21
-1.927218065e-20
-3.28114848e-21
-1.709331344e-20
-2.126090549e-21
-1.507333488e-20
-1.280364329e-21
-1.324130683e-20
-6.703935816e-22
-1.160370416e-20
-2.382345139e-22
-1.015406243e-20
6.105372509e-23
-8.879120859e-21
2.619352924e-22
-7.762611643e-21
3.906101536e-22
-6.787511712e-21
4.668542103e-22
-5.937313828e-21
5.055015526e-22
-5.196687053e-21
5.176136489e-22
-4.551767044e-21
5.113885376e-22
-3.990229549e-21
4.928608593e-22
-3.501243208e-21
4.664370722e-22
-3.075360579e-21
4.353025783e-22
-2.704382741e-21
4.017302436e-22
-2.381217884e-21
3.673134972e-22
-2.09974516e-21
3.331420032e-22
-1.854689416e-21
2.999337358e-22
-1.641509184e-21
2.681340315e-22
-1.456298351e-21
2.379896603e-22
-1.295700955e-21
2.096040243e-22
-1.156838013e-21
1.829781081e-22
-1.037245121e-21
1.580406877e-22
-9.348195641e-22
1.34670446e-22
-8.477756938e-22
1.127120045e-22
-7.746075341e-22
9.198739314e-23
-7.140576446e-22
7.230411194e-23
-6.650914545e-22
5.346066691e-23
-6.268763925e-22
3.525025535e-23
-5.987652688e-22
1.746312602e-23
-5.802834735e-22
-5.711196558e-22
4.355187959e-08
2.992776406e-09
4.331962865e-08
9.350122775e-09
4.350932616e-08
1.512354179e-08
4.719297929e-08
2.520301721e-08
1.382512322e-08
3.412187324e-08
-7.330420975e-08
-7.093356638e-08
-9.671928385e-08
-3.011855579e-07
4.971744587e-17
-3.308941804e-07
-5.898500492e-20
-6.832925961e-21
-5.008058996e-20
-2.259623486e-20
-3.993074992e-20
-3.181155187e-20
-3.047095663e-20
-3.540128924e-20
-2.24596033e-20
-3.548543734e-20
-1.604360799e-20
-3.359290981e-20
-1.109122948e-20
-3.072680304e-20
-7.36978883e-21
-2.75039057e-20
-4.632897532e-21
-2.428055954e-20
-2.658444213e-21
-2.124670757e-20
-1.26131613e-21
-1.849052304e-20
-2.940954583e-22
-1.604064487e-20
3.572703029e-22
-1.38927696e-20
7.793142443e-22
-1.202585268e-20
1.036788295e-21
-1.04116485e-20
1.177648015e-21
-9.020099876e-21
1.237117757e-21
-7.822207806e-21
1.240884711e-21
-6.79141204e-21
1.207550335e-21
-5.904119596e-21
1.150483217e-21
-5.139766657e-21
1.079205334e-21
-4.480642255e-21
1.000422148e-21
-3.911605618e-21
9.187845124e-22
-3.419770761e-21
8.374503966e-22
-2.994197352e-21
7.584980623e-22
-2.62560675e-21
6.832293641e-22
-2.306130731e-21
6.123919665e-22
-2.029094244e-21
5.46341782e-22
-1.788830378e-21
4.851613616e-22
-1.580524292e-21
4.287458334e-22
-1.400082445e-21
3.768649351e-22
-1.244023476e-21
3.292074373e-22
-1.109387426e-21
2.854126008e-22
-9.936603764e-22
2.450920938e-22
-8.947120116e-22
2.078448979e-22
-8.107439921e-22
1.732670709e-22
-7.402474127e-22
1.409577494e-22
-6.819679073e-22
1.105224125e-22
-6.348772437e-22
8.157416548e-23
-5.981504736e-22
5.373360863e-23
-5.711478998e-22
2.662771551e-23
-5.534012839e-22
-5.4460386e-22
4.980129428e-08
2.964449318e-09
5.01842843e-08
8.967132727e-09
4.991312139e-08
1.539470465e-08
5.435230987e-08
2.076382867e-08
4.922301763e-08
3.925116542e-08
-2.715050774e-08
5.439959e-09
-9.395719275e-08
-2.34378873e-07
1.369482869e-17
-4.248513732e-07
-7.623590198e-20
-2.017416988e-20
-5.930837819e-20
-3.952376621e-20
-4.353106475e-20
-4.758888136e-20
-3.056274371e-20
-4.836963491e-20
-2.057209344e-20
-4.547612054e-20
-1.318058974e-20
-4.098445464e-20
-7.870118358e-21
-3.603732373e-20
-4.147395964e-21
-3.122668554e-20
-1.599488959e-21
-2.682853206e-20
9.75954664e-23
-2.294386551e-20
1.188582539e-21
-1.958159154e-20
1.853884455e-21
-1.670603604e-20
2.224328152e-21
-1.426331025e-20
2.393668586e-21
-1.219529764e-20
2.428481878e-21
-1.044657375e-20
2.375672909e-21
-8.967410155e-21
2.268031536e-21
-7.714692809e-21
2.128280032e-21
-6.651793868e-21
1.971991889e-21
-5.747971556e-21
1.809683379e-21
-4.977604828e-21
1.648306452e-21
-4.319418386e-21
1.492311753e-21
-3.755770136e-21
1.344404353e-21
-3.272028514e-21
1.206080373e-21
-2.856044225e-21
1.078007486e-21
-2.49771017e-21
9.602942096e-22
-2.188598963e-21
8.526799277e-22
-1.921666408e-21
7.546683526e-22
-1.691009912e-21
6.656206298e-22
-1.491672062e-21
5.848196148e-22
-1.319481017e-21
5.115135657e-22
-1.170920809e-21
4.449451468e-22
-1.043025881e-21
3.843699646e-22
-9.332952485e-22
3.29067664e-22
-8.39622628e-22
2.783477543e-22
-7.602395388e-22
2.315517216e-22
-6.936690475e-22
1.880525411e-22
-6.386882727e-22
1.472523837e-22
-5.942981738e-22
1.085790823e-22
-5.596994616e-22
7.148175961e-23
-5.342737262e-22
3.542589926e-23
-5.175690882e-22
-5.092898589e-22
5.588797087e-08
2.850660387e-09
5.65316881e-08
8.323415473e-09
5.716729708e-08
1.475909563e-08
5.890479067e-08
1.902633503e-08
6.732613356e-08
3.082982251e-08
2.638062596e-08
4.638546665e-08
-7.393767079e-08
-1.340605762e-07
6.019354936e-17
-4.987890438e-07
-9.761767348e-20
-5.587638486e-20
-6.740359453e-20
-6.973785269e-20
-4.432986211e-20
-7.066262975e-20
-2.767961821e-20
-6.501990335e-20
-1.608615304e-20
-5.706961851e-20
-8.236429344e-21
-4.883421936e-20
-3.060868016e-21
-4.121293426e-20
2.502472986e-22
-3.453785819e-20
2.285129901e-21
-2.886348009e-20
3.460046025e-21
-2.411885507e-20
4.064406571e-21
-2.018603345e-20
4.296900415e-21
-1.693861906e-20
4.292617754e-21
-1.425912447e-20
4.142641138e-21
-1.204542549e-20
3.907861129e-21
-1.021190565e-20
3.628573506e-21
-8.688241731e-21
3.3310843e-21
-7.417329932e-21
3.032230556e-21
-6.35307341e-21
2.742465088e-21
-5.458346149e-21
2.467958113e-21
-4.703244495e-21
2.212027928e-21
-4.063641217e-21
1.976114179e-21
-3.520015565e-21
1.760439227e-21
-3.056518675e-21
1.564456605e-21
-2.660232417e-21