/*--------------------------------*- C++ -*----------------------------------*\
  =========                 |
  \\      /  F ield         | OpenFOAM: The Open Source CFD Toolbox
   \\    /   O peration     | Website:  https://openfoam.org
    \\  /    A nd           | Version:  6
     \\/     M anipulation  |
\*---------------------------------------------------------------------------*/
FoamFile
{
    version     2.0;
    format      ascii;
    class       volScalarField;
    location    "0.15";
    object      pVap;
}
// * * * * * * * * * * * * * * * * * * * * * * * * * * * * * * * * * * * * * //

dimensions      [1 -1 -2 0 0 0 0];

internalField   nonuniform List<scalar> 
2500
(
55294.47436
55294.19152
55293.78728
55293.44552
55293.17156
55292.95446
55292.76922
55292.62064
1.076532138
1.075731532
1.075203321
1.074854687
1.07462735
1.074481536
1.074389701
1.074332973
1.074298647
1.074278331
1.074266591
1.074259979
1.074256356
1.074254427
1.074253431
1.074252933
1.074252692
1.074252579
1.074252527
1.074252505
1.074252495
1.074252491
1.07425249
1.074252489
1.074252489
1.074252489
1.074252489
1.074252489
1.074252489
1.074252489
1.074252489
1.074252489
1.074252489
1.074252489
1.074252489
1.074252489
1.074252489
1.074252489
1.074252489
1.074252489
1.074252489
1.074252489
55296.19221
55295.90679
55295.39621
55294.75512
55294.1074
55293.55441
55293.06953
55292.63249
1.081152969
1.078811834
1.077223185
1.076158077
1.075454287
1.074996659
1.074704212
1.074520819
1.07440818
1.074340565
1.074300986
1.074278443
1.074265972
1.074259281
1.074255805
1.074254057
1.074253207
1.074252807
1.074252626
1.074252546
1.074252512
1.074252498
1.074252492
1.07425249
1.074252489
1.074252489
1.074252489
1.074252489
1.074252489
1.074252489
1.074252489
1.074252489
1.074252489
1.074252489
1.074252489
1.074252489
1.074252489
1.074252489
1.074252489
1.074252489
1.074252489
1.074252489
55297.01762
55296.79506
55296.35181
55295.69162
55294.87718
55294.08429
55293.35534
55292.63832
1.086290021
1.082379315
1.079667268
1.077808659
1.076550407
1.075710183
1.075158018
1.074801965
1.074577411
1.074439339
1.074356802
1.074308948
1.074282086
1.074267506
1.074259861
1.07425599
1.074254097
1.074253204
1.074252796
1.074252617
1.074252541
1.074252509
1.074252496
1.074252492
1.07425249
1.074252489
1.074252489
1.074252489
1.074252489
1.074252489
1.074252489
1.074252489
1.074252489
1.074252489
1.074252489
1.074252489
1.074252489
1.074252489
1.074252489
1.074252489
1.074252489
1.074252489
55297.5037
55297.33606
55296.98211
55296.40368
55295.56859
55294.60358
55293.65252
55292.65725
1.092674749
1.087049245
1.083049039
1.080219891
1.078233846
1.076855442
1.075914249
1.075285232
1.074875694
1.074616933
1.074458728
1.074365323
1.074312136
1.074282947
1.074267512
1.074259648
1.074255786
1.074253957
1.074253121
1.074252752
1.074252595
1.07425253
1.074252505
1.074252495
1.074252491
1.07425249
1.074252489
1.074252489
1.074252489
1.074252489
1.074252489
1.074252489
1.074252489
1.074252489
1.074252489
1.074252489
1.074252489
1.074252489
1.074252489
1.074252489
1.074252489
1.074252489
55297.84842
55297.72761
55297.45301
55296.9695
55296.19956
55295.13221
55293.96315
55292.68752
1.10152176
1.093913042
1.08829736
1.084142501
1.081081248
1.078853779
1.07726617
1.076165339
1.075426551
1.074948319
1.074650362
1.074471888
1.074369152
1.074312317
1.074282089
1.074266623
1.074259007
1.074255393
1.07425374
1.07425301
1.074252699
1.074252571
1.07425252
1.0742525
1.074252493
1.07425249
1.074252489
1.074252489
1.074252489
1.074252489
1.074252489
1.074252489
1.074252489
1.074252489
1.074252489
1.074252489
1.074252489
1.074252489
1.074252489
1.074252489
1.074252489
1.074252489
55298.12452
55298.04639
55297.84311
55297.44567
55296.75824
55295.67935
55294.29026
55292.72323
1.115053101
1.104980247
1.097124463
1.090956375
1.08614707
1.08247095
1.079743352
1.077791723
1.076450354
1.075566531
1.075008683
1.074671394
1.074475947
1.074367326
1.074309378
1.074279673
1.074265027
1.074258075
1.074254894
1.074253491
1.074252893
1.074252647
1.074252549
1.074252511
1.074252497
1.074252492
1.07425249
1.074252489
1.074252489
1.074252489
1.074252489
1.074252489
1.074252489
1.074252489
1.074252489
1.074252489
1.074252489
1.074252489
1.074252489
1.074252489
1.074252489
1.074252489
55298.36188
55298.32311
55298.18834
55297.87351
55297.26579
55296.21384
55294.64428
55292.77339
1.137414292
1.123969049
1.11267385
1.103172738
1.095332075
1.089074023
1.084282532
1.08077727
1.078330701
1.076701587
1.075666004
1.075036938
1.074671347
1.074467821
1.074359152
1.074303436
1.074275973
1.074262943
1.074256987
1.074254361
1.074253243
1.074252783
1.0742526
1.07425253
1.074252503
1.074252494
1.074252491
1.074252489
1.074252489
1.074252489
1.074252489
1.074252489
1.074252489
1.074252489
1.074252489
1.074252489
1.074252489
1.074252489
1.074252489
1.074252489
1.074252489
1.074252489
55298.5786
55298.57244
55298.50428
55298.27704
55297.76146
55296.76727
55295.08144
55292.85023
1.17636336
1.157738568
1.140672371
1.125302977
1.112000978
1.101048427
1.09249679
1.08616515
1.081713983
1.078737799
1.076841802
1.075689025
1.075019016
1.074646194
1.074447297
1.074345429
1.074295276
1.074271512
1.074260664
1.074255887
1.074253856
1.074253022
1.07425269
1.074252563
1.074252515
1.074252498
1.074252492
1.07425249
1.074252489
1.074252489
1.074252489
1.074252489
1.074252489
1.074252489
1.074252489
1.074252489
1.074252489
1.074252489
1.074252489
1.074252489
1.074252489
1.074252489
55298.79318
55298.80631
55298.79703
55298.66147
55298.25311
55297.34916
55295.61886
55292.95911
1.246277081
1.218986969
1.191562067
1.165403528
1.142029947
1.12247181
1.107091066
1.095676133
1.087652027
1.082293609
1.078886078
1.076818405
1.075619113
1.07495314
1.074598562
1.074417311
1.074328244
1.074286117
1.074266919
1.074258478
1.074254896
1.074253426
1.074252843
1.074252618
1.074252535
1.074252505
1.074252494
1.074252491
1.074252489
1.074252489
1.074252489
1.074252489
1.074252489
1.074252489
1.074252489
1.074252489
1.074252489
1.074252489
1.074252489
1.074252489
1.074252489
1.074252489
55299.02158
55299.03959
55299.0718
55299.02594
55298.73737
55297.95446
55296.25146
55293.47443
1.375079888
1.332009241
1.284787179
1.237991734
1.195653015
1.160221113
1.132499655
1.112064936
1.097796748
1.088325775
1.082333973
1.07871405
1.076622254
1.075464434
1.074849753
1.074536353
1.074382706
1.07431019
1.074277207
1.074262733
1.0742566
1.074254087
1.074253091
1.074252709
1.074252567
1.074252516
1.074252498
1.074252492
1.07425249
1.074252489
1.074252489
1.074252489
1.074252489
1.074252489
1.074252489
1.074252489
1.074252489
1.074252489
1.074252489
1.074252489
1.074252489
1.074252489
55299.26591
55299.28791
55299.33695
55299.37038
55299.21054
55298.57765
55296.96469
55296.07047
1.621314211
1.546222087
1.458248093
1.370011825
1.290933854
1.225872541
1.175881677
1.139627314
1.114654269
1.098255518
1.087967908
1.081793454
1.07824408
1.076287798
1.075252896
1.074726844
1.07446963
1.074348524
1.074293556
1.074269482
1.074259298
1.074255133
1.074253484
1.074252853
1.074252618
1.074252533
1.074252504
1.074252494
1.07425249
1.074252489
1.074252489
1.074252489
1.074252489
1.074252489
1.074252489
1.074252489
1.074252489
1.074252489
1.074252489
1.074252489
1.074252489
1.074252489
55299.52447
55299.54665
55299.60683
55299.69806
55299.67213
55299.21978
55297.76559
55295.33633
2.120920546
1.971424148
1.791307971
1.614192149
1.460833265
1.339180976
1.24874427
1.184929673
1.141905796
1.114108434
1.096878632
1.086629391
1.080776997
1.077568035
1.075877453
1.075021045
1.074603518
1.074407427
1.074318624
1.07427981
1.074263419
1.074256727
1.074254083
1.07425307
1.074252695
1.07425256
1.074252513
1.074252497
1.074252491
1.07425249
1.074252489
1.074252489
1.074252489
1.074252489
1.074252489
1.074252489
1.074252489
1.074252489
1.074252489
1.074252489
1.074252489
1.074252489
55299.79747
55299.8214
55299.88886
55300.01365
55300.12314
55299.88532
55298.67663
55294.78584
3.23199753
2.88031821
2.466444463
2.081608844
1.768731728
1.534897706
1.369742337
1.257893914
1.184806004
1.13865314
1.110510649
1.093963642
1.084593798
1.079487698
1.076810275
1.075459029
1.07480229
1.074494665
1.074355673
1.074295044
1.074269489
1.074259071
1.074254961
1.07425339
1.074252808
1.074252599
1.074252526
1.074252501
1.074252493
1.07425249
1.074252489
1.074252489
1.074252489
1.074252489
1.074252489
1.074252489
1.074252489
1.074252489
1.074252489
1.074252489
1.074252489
1.074252489
55300.08359
55300.11014
55300.18429
55300.34003
55300.56143
55300.57237
55299.70984
55295.97882
6.041051705
5.038843158
3.949195727
3.02687745
2.344586042
1.876826328
1.569733835
1.373469675
1.250674682
1.175515476
1.130671338
1.104694948
1.090136273
1.08225985
1.078151635
1.076086696
1.075086343
1.074619031
1.074408377
1.074316675
1.074278092
1.07426239
1.074256203
1.074253841
1.074252967
1.074252653
1.074252544
1.074252507
1.074252494
1.074252491
1.074252489
1.074252489
1.074252489
1.074252489
1.074252489
1.074252489
1.074252489
1.074252489
1.074252489
1.074252489
1.074252489
1.074252489
55300.382
55300.41147
55300.49494
55300.66947
55300.9719
55301.26347
55300.84735
55297.62873
14.32250189
10.86052188
7.54847432
5.082399718
3.472228726
2.487513087
1.90105942
1.554238869
1.349487678
1.229231707
1.159477072
1.119826464
1.097881474
1.086109447
1.080005782
1.076951239
1.075476473
1.074789428
1.074480439
1.074346197
1.074289815
1.074266904
1.07425789
1.074254453
1.074253183
1.074252727
1.074252568
1.074252515
1.074252497
1.074252491
1.07425249
1.074252489
1.074252489
1.074252489
1.074252489
1.074252489
1.074252489
1.074252489
1.074252489
1.074252489
1.074252489
1.074252489
55300.69087
55300.72399
55300.82017
55301.01902
55301.39168
55301.92205
55302.03655
55299.69453
42.4607578
28.56361953
17.20164562
9.912667899
5.801359113
3.610498275
2.454195784
1.834305341
1.494506227
1.305176071
1.199203407
1.140358469
1.108279814
1.091240997
1.082465051
1.078093695
1.075990518
1.075013413
1.07457497
1.074384856
1.074305142
1.074272798
1.07426009
1.074255251
1.074253464
1.074252823
1.0742526
1.074252525
1.0742525
1.074252492
1.07425249
1.074252489
1.074252489
1.074252489
1.074252489
1.074252489
1.074252489
1.074252489
1.074252489
1.074252489
1.074252489
1.074252489
55301.00662
55301.04492
55301.15658
55301.38775
55301.80776
55302.50247
55303.20059
55302.00816
145.2280458
86.16584956
44.86033976
21.96290791
10.84098074
5.734285994
3.385492019
2.264400212
1.702682163
1.40924317
1.252000076
1.167116216
1.121663346
1.097792752
1.085587989
1.07953888
1.07663888
1.075295263
1.074693691
1.074433325
1.074324329
1.074280167
1.074262837
1.074256245
1.074253814
1.074252943
1.07425264
1.074252538
1.074252504
1.074252494
1.07425249
1.074252489
1.074252489
1.074252489
1.074252489
1.074252489
1.074252489
1.074252489
1.074252489
1.074252489
1.074252489
1.074252489
55301.32367
55301.36909
55301.5
55301.77372
55302.26293
55303.09508
55304.25354
55304.64822
503.845408
269.1000453
124.053658
52.5049899
21.97384327
9.809739618
4.956198315
2.91660376
1.994150309
1.547083637
1.319429833
1.200512355
1.138129816
1.10578175
1.089373947
1.081283938
1.077419502
1.075633838
1.074836039
1.074491347
1.074347267
1.074288966
1.074266113
1.07425743
1.07425423
1.074253085
1.074252688
1.074252553
1.074252509
1.074252495
1.074252491
1.074252489
1.074252489
1.074252489
1.074252489
1.074252489
1.074252489
1.074252489
1.074252489
1.074252489
1.074252489
1.074252489
55301.63469
55301.68904
55301.84375
55302.16776
55302.74767
55303.69688
55305.14377
55310.73666
1562.391768
781.5111879
332.7940612
126.4214844
46.03187938
17.53426527
7.567386183
3.883543349
2.389472862
1.722623727
1.401807841
1.240261362
1.157418252
1.115049002
1.093738872
1.083287747
1.078313315
1.076020668
1.07499839
1.074557426
1.074373356
1.074298962
1.074269832
1.074258774
1.074254702
1.074253247
1.074252741
1.074252571
1.074252515
1.074252497
1.074252491
1.074252489
1.074252489
1.074252489
1.074252489
1.074252489
1.074252489
1.074252489
1.074252489
1.074252489
1.074252489
1.074252489
55301.93068
55301.99535
55302.17806
55302.55979
55303.24866
55304.35316
55305.99465
55335.07961
3998.231125
1954.079739
804.083377
286.6927769
94.35026816
31.46506547
11.73883348
5.261531729
2.90279609
1.935665347
1.497381881
1.285092662
1.178803672
1.125218802
1.098498956
1.085464211
1.079281477
1.076438824
1.075173607
1.074628646
1.074401442
1.074309712
1.074273828
1.074260217
1.074255209
1.07425342
1.074252799
1.074252589
1.07425252
1.074252499
1.074252492
1.07425249
1.074252489
1.074252489
1.074252489
1.074252489
1.074252489
1.074252489
1.074252489
1.074252489
1.074252489
1.074252489
55302.20134
55302.27714
55302.49035
55302.93542
55303.74241
55305.03628
55306.85671
55416.15117
8249.873247
4066.872134
1674.409152
582.5345452
180.1923631
54.3826524
17.93690112
7.104395939
3.529758755
2.178752788
1.601526486
1.332547776
1.201048744
1.135688641
1.103369276
1.087682518
1.080265724
1.076863142
1.075351152
1.074700727
1.07442984
1.074320572
1.074277861
1.074261672
1.074255719
1.074253594
1.074252856
1.074252608
1.074252526
1.0742525
1.074252492
1.07425249
1.074252489
1.074252489
1.074252489
1.074252489
1.074252489
1.074252489
1.074252489
1.074252489
1.074252489
1.074252489
55302.43583
55302.52273
55302.76609
55303.27359
55304.19047
55305.65207
55307.60587
55627.79533
13957.24823
7051.2434
2961.559091
1031.649769
309.5297684
87.33377499
26.182236
9.346064805
4.232319427
2.434318587
1.706306851
1.378980269
1.222452957
1.145664316
1.107982982
1.08977655
1.081192704
1.077262128
1.075517892
1.074768353
1.07445646
1.074330745
1.074281636
1.074263034
1.074256196
1.074253756
1.07425291
1.074252625
1.074252532
1.074252502
1.074252493
1.07425249
1.074252489
1.074252489
1.074252489
1.074252489
1.074252489
1.074252489
1.074252489
1.074252489
1.074252489
1.074252489
55302.6237
55302.72082
55302.99186
55303.55701
55304.57405
55306.18039
55308.2421
56078.21665
19968.41326
10370.2359
4468.356208
1577.444408
468.4590164
126.898863
35.56360027
11.72457362
4.92865961
2.674090611
1.800892197
1.419874689
1.241027164
1.154246682
1.111932417
1.091563698
1.081982316
1.077601536
1.075659592
1.074825779
1.074479049
1.074339372
1.074284837
1.074264188
1.074256601
1.074253894
1.074252956
1.07425264
1.074252537
1.074252503
1.074252493
1.07425249
1.074252489
1.074252489
1.074252489
1.074252489
1.074252489
1.074252489
1.074252489
1.074252489
1.074252489
1.074252489
55302.75556
55302.86092
55303.15456
55303.76756
55304.8688
55306.58334
55308.75159
56658.81931
24893.33872
13219.05268
5820.1902
2084.854815
618.8175712
164.0252265
44.0765105
13.77972343
5.500640986
2.862925869
1.873176665
1.450527828
1.25478852
1.160562384
1.114827458
1.092870696
1.082558945
1.07784915
1.075762893
1.074867618
1.074495499
1.074345652
1.074287165
1.074265027
1.074256895
1.074253994
1.074252989
1.074252651
1.07425254
1.074252504
1.074252493
1.07425249
1.074252489
1.074252489
1.074252489
1.074252489
1.074252489
1.074252489
1.074252489
1.074252489
1.074252489
1.074252489
55302.82379
55302.93397
55303.24094
55303.88281
55305.03706
55306.81838
55309.06532
55311.2272
27537.43914
14854.11605
6620.456121
2392.764699
711.3773846
186.8503587
49.21822534
14.98588849
5.826093498
2.967573205
1.912476523
1.46698842
1.262123402
1.163914183
1.116360075
1.093561605
1.082863486
1.077979845
1.075817392
1.074889683
1.074504172
1.074348962
1.074288393
1.074265469
1.07425705
1.074254047
1.074253007
1.074252656
1.074252542
1.074252505
1.074252494
1.07425249
1.074252489
1.074252489
1.074252489
1.074252489
1.074252489
1.074252489
1.074252489
1.074252489
1.074252489
1.074252489
55302.82379
55302.93397
55303.24094
55303.88281
55305.03706
55306.81838
55309.06532
55311.2272
27537.43939
14854.11596
6620.456093
2392.76469
711.3773825
186.8503584
49.21822529
14.98588848
5.826093497
2.967573205
1.912476523
1.46698842
1.262123402
1.163914183
1.116360075
1.093561605
1.082863486
1.077979845
1.075817392
1.074889683
1.074504172
1.074348962
1.074288393
1.074265469
1.07425705
1.074254047
1.074253007
1.074252656
1.074252542
1.074252505
1.074252494
1.07425249
1.074252489
1.074252489
1.074252489
1.074252489
1.074252489
1.074252489
1.074252489
1.074252489
1.074252489
1.074252489
55302.75556
55302.86092
55303.15456
55303.76756
55304.8688
55306.58333
55308.75158
56658.81532
24893.33824
13219.0525
5820.190131
2084.854794
618.8175666
164.0252257
44.07651039
13.77972342
5.500640985
2.86292587
1.873176665
1.450527829
1.254788521
1.160562384
1.114827458
1.092870696
1.082558945
1.07784915
1.075762893
1.074867618
1.074495499
1.074345652
1.074287165
1.074265027
1.074256895
1.074253994
1.074252989
1.074252651
1.07425254
1.074252504
1.074252494
1.07425249
1.074252489
1.074252489
1.074252489
1.074252489
1.074252489
1.074252489
1.074252489
1.074252489
1.074252489
1.074252489
55302.62371
55302.72082
55302.99186
55303.55701
55304.57405
55306.18039
55308.24209
56078.20014
19968.41437
10370.23567
4468.356134
1577.444389
468.4590127
126.8988625
35.56360022
11.72457362
4.928659614
2.674090613
1.800892199
1.41987469
1.241027164
1.154246683
1.111932417
1.091563698
1.081982316
1.077601536
1.075659592
1.074825779
1.074479049
1.074339372
1.074284837
1.074264188
1.074256601
1.074253894
1.074252956
1.07425264
1.074252536
1.074252503
1.074252493
1.07425249
1.074252489
1.074252489
1.074252489
1.074252489
1.074252489
1.074252489
1.074252489
1.074252489
1.074252489
1.074252489
55302.43583
55302.52273
55302.76609
55303.27359
55304.19047
55305.65207
55307.60587
55627.75255
13957.24866
7051.243259
2961.559055
1031.649762
309.5297678
87.3337751
26.18223608
9.346064839
4.23231944
2.434318592
1.706306853
1.37898027
1.222452957
1.145664316
1.107982982
1.08977655
1.081192705
1.077262128
1.075517892
1.074768353
1.07445646
1.074330745
1.074281636
1.074263034
1.074256196
1.074253756
1.07425291
1.074252625
1.074252532
1.074252502
1.074252493
1.07425249
1.074252489
1.074252489
1.074252489
1.074252489
1.074252489
1.074252489
1.074252489
1.074252489
1.074252489
1.074252489
55302.20134
55302.27714
55302.49035
55302.93542
55303.74241
55305.03628
55306.85671
55416.10415
8249.872553
4066.872138
1674.409163
582.5345506
180.1923651
54.38265306
17.93690132
7.104396003
3.529758778
2.178752797
1.60152649
1.332547778
1.201048744
1.135688642
1.103369276
1.087682518
1.080265724
1.076863142
1.075351152
1.074700727
1.07442984
1.074320572
1.074277861
1.074261672
1.074255719
1.074253594
1.074252856
1.074252608
1.074252526
1.0742525
1.074252492
1.07425249
1.074252489
1.074252489
1.074252489
1.074252489
1.074252489
1.074252489
1.074252489
1.074252489
1.074252489
1.074252489
55301.93068
55301.99535
55302.17806
55302.55979
55303.24866
55304.35316
55305.99465
55334.9677
3998.230064
1954.079825
804.083408
286.6927868
94.35027107
31.46506629
11.73883372
5.261531807
2.902796118
1.935665359
1.497381886
1.285092664
1.178803673
1.125218802
1.098498956
1.085464211
1.079281477
1.076438824
1.075173607
1.074628646
1.074401442
1.074309712
1.074273828
1.074260217
1.074255209
1.07425342
1.074252799
1.074252589
1.07425252
1.074252499
1.074252492
1.07425249
1.074252489
1.074252489
1.074252489
1.074252489
1.074252489
1.074252489
1.074252489
1.074252489
1.074252489
1.074252489
55301.63469
55301.68904
55301.84375
55302.16777
55302.74767
55303.69688
55305.14377
55310.69251
1562.391526
781.511258
332.7940857
126.4214921
46.0318817
17.53426596
7.5673864
3.883543425
2.389472892
1.72262374
1.401807847
1.240261365
1.157418253
1.115049003
1.093738872
1.083287747
1.078313315
1.076020668
1.07499839
1.074557426
1.074373356
1.074298962
1.074269832
1.074258774
1.074254702
1.074253247
1.074252741
1.074252571
1.074252515
1.074252497
1.074252491
1.074252489
1.074252489
1.074252489
1.074252489
1.074252489
1.074252489
1.074252489
1.074252489
1.074252489
1.074252489
1.074252489
55301.32367
55301.3691
55301.5
55301.77373
55302.26293
55303.09508
55304.25354
55304.65752
503.8454492
269.1000773
124.0536704
52.50499417
21.97384468
9.809740087
4.956198482
2.916603824
1.994150337
1.54708365
1.319429838
1.200512358
1.138129817
1.105781751
1.089373947
1.081283938
1.077419502
1.075633838
1.074836039
1.074491347
1.074347267
1.074288966
1.074266113
1.07425743
1.07425423
1.074253085
1.074252688
1.074252553
1.074252509
1.074252495
1.074252491
1.074252489
1.074252489
1.074252489
1.074252489
1.074252489
1.074252489
1.074252489
1.074252489
1.074252489
1.074252489
1.074252489
55301.00662
55301.04493
55301.15658
55301.38775
55301.80776
55302.50247
55303.2006
55302.00811
145.228066
86.1658609
44.86034473
21.96290988
10.84098148
5.73428628
3.385492134
2.264400262
1.702682186
1.409243181
1.252000081
1.167116219
1.121663348
1.097792753
1.08558799
1.079538881
1.07663888
1.075295263
1.074693691
1.074433325
1.074324329
1.074280167
1.074262837
1.074256245
1.074253814
1.074252943
1.07425264
1.074252538
1.074252504
1.074252494
1.07425249
1.074252489
1.074252489
1.074252489
1.074252489
1.074252489
1.074252489
1.074252489
1.074252489
1.074252489
1.074252489
1.074252489
55300.69088
55300.72399
55300.82017
55301.01902
55301.39168
55301.92205
55302.03656
55299.69284
42.46076398
28.56362322
17.20164748
9.912668747
5.801359486
3.61049844
2.454195859
1.834305377
1.494506244
1.30517608
1.199203412
1.140358471
1.108279816
1.091240998
1.082465051
1.078093695
1.075990518
1.075013413
1.07457497
1.074384856
1.074305142
1.074272798
1.07426009
1.074255251
1.074253464
1.074252823
1.0742526
1.074252525
1.0742525
1.074252492
1.07425249
1.074252489
1.074252489
1.074252489
1.074252489
1.074252489
1.074252489
1.074252489
1.074252489
1.074252489
1.074252489
1.074252489
55300.382
55300.41147
55300.49494
55300.66947
55300.9719
55301.26347
55300.84735
55297.62757
14.32250385
10.86052312
7.548475028
5.082400088
3.472228912
2.48751318
1.901059467
1.554238893
1.349487691
1.229231713
1.159477076
1.119826465
1.097881474
1.086109447
1.080005782
1.076951239
1.075476473
1.074789428
1.074480439
1.074346197
1.074289815
1.074266904
1.07425789
1.074254453
1.074253183
1.074252727
1.074252568
1.074252515
1.074252497
1.074252491
1.07425249
1.074252489
1.074252489
1.074252489
1.074252489
1.074252489
1.074252489
1.074252489
1.074252489
1.074252489
1.074252489
1.074252489
55300.08359
55300.11014
55300.18429
55300.34003
55300.56143
55300.57237
55299.70984
55295.97767
6.041052458
5.038843631
3.949196019
3.026877619
2.344586137
1.87682638
1.569733864
1.373469691
1.250674691
1.17551548
1.13067134
1.104694949
1.090136273
1.08225985
1.078151636
1.076086696
1.075086343
1.074619031
1.074408377
1.074316675
1.074278092
1.07426239
1.074256203
1.074253841
1.074252967
1.074252653
1.074252544
1.074252507
1.074252494
1.074252491
1.074252489
1.074252489
1.074252489
1.074252489
1.074252489
1.074252489
1.074252489
1.074252489
1.074252489
1.074252489
1.074252489
1.074252489
55299.79747
55299.8214
55299.88886
55300.01365
55300.12314
55299.88532
55298.67664
55294.78746
3.23199793
2.880318418
2.466444597
2.081608927
1.768731778
1.534897736
1.369742355
1.257893923
1.18480601
1.138653143
1.110510651
1.093963643
1.084593799
1.079487698
1.076810275
1.075459029
1.07480229
1.074494665
1.074355673
1.074295044
1.074269489
1.074259071
1.074254961
1.07425339
1.074252808
1.074252599
1.074252526
1.074252501
1.074252493
1.07425249
1.074252489
1.074252489
1.074252489
1.074252489
1.074252489
1.074252489
1.074252489
1.074252489
1.074252489
1.074252489
1.074252489
1.074252489
55299.52447
55299.54665
55299.60683
55299.69806
55299.67213
55299.21978
55297.76559
55295.2857
2.120920763
1.971424257
1.791308039
1.614192191
1.460833292
1.339180993
1.24874428
1.184929679
1.141905799
1.114108436
1.096878633
1.086629392
1.080776997
1.077568035
1.075877453
1.075021045
1.074603518
1.074407427
1.074318624
1.07427981
1.074263419
1.074256727
1.074254083
1.07425307
1.074252695
1.07425256
1.074252513
1.074252497
1.074252491
1.07425249
1.074252489
1.074252489
1.074252489
1.074252489
1.074252489
1.074252489
1.074252489
1.074252489
1.074252489
1.074252489
1.074252489
1.074252489
55299.26591
55299.28791
55299.33696
55299.37038
55299.21054
55298.57766
55296.96469
55295.97901
1.62131432
1.546222145
1.458248128
1.370011847
1.290933868
1.22587255
1.175881682
1.139627317
1.114654271
1.098255519
1.087967909
1.081793454
1.07824408
1.076287799
1.075252896
1.074726844
1.07446963
1.074348524
1.074293556
1.074269482
1.074259298
1.074255133
1.074253484
1.074252853
1.074252618
1.074252533
1.074252504
1.074252494
1.07425249
1.074252489
1.074252489
1.074252489
1.074252489
1.074252489
1.074252489
1.074252489
1.074252489
1.074252489
1.074252489
1.074252489
1.074252489
1.074252489
55299.02158
55299.03959
55299.0718
55299.02594
55298.73737
55297.95446
55296.25146
55293.46241
1.37507993
1.332009271
1.284787197
1.237991744
1.195653021
1.160221117
1.132499658
1.112064937
1.097796749
1.088325775
1.082333974
1.07871405
1.076622255
1.075464434
1.074849754
1.074536353
1.074382706
1.07431019
1.074277207
1.074262733
1.0742566
1.074254087
1.074253091
1.074252709
1.074252567
1.074252516
1.074252498
1.074252492
1.07425249
1.074252489
1.074252489
1.074252489
1.074252489
1.074252489
1.074252489
1.074252489
1.074252489
1.074252489
1.074252489
1.074252489
1.074252489
1.074252489
55298.79318
55298.80632
55298.79703
55298.66148
55298.25311
55297.34916
55295.61886
55292.96044
1.246277103
1.218986982
1.191562074
1.165403532
1.142029949
1.122471812
1.107091067
1.095676134
1.087652027
1.08229361
1.078886079
1.076818405
1.075619113
1.07495314
1.074598562
1.074417311
1.074328244
1.074286117
1.074266919
1.074258478
1.074254896
1.074253426
1.074252843
1.074252618
1.074252535
1.074252505
1.074252494
1.074252491
1.074252489
1.074252489
1.074252489
1.074252489
1.074252489
1.074252489
1.074252489
1.074252489
1.074252489
1.074252489
1.074252489
1.074252489
1.074252489
1.074252489
55298.57861
55298.57244
55298.50429
55298.27704
55297.76146
55296.76727
55295.08144
55292.85337
1.176363374
1.157738573
1.140672372
1.125302977
1.112000978
1.101048427
1.09249679
1.08616515
1.081713983
1.078737799
1.076841802
1.075689025
1.075019016
1.074646194
1.074447297
1.074345429
1.074295276
1.074271512
1.074260664
1.074255887
1.074253856
1.074253022
1.07425269
1.074252563
1.074252515
1.074252498
1.074252492
1.07425249
1.074252489
1.074252489
1.074252489
1.074252489
1.074252489
1.074252489
1.074252489
1.074252489
1.074252489
1.074252489
1.074252489
1.074252489
1.074252489
1.074252489
55298.36189
55298.32312
55298.18834
55297.87351
55297.26579
55296.21384
55294.64428
55292.773
1.137414293
1.123969049
1.112673849
1.103172737
1.095332074
1.089074022
1.084282532
1.08077727
1.078330701
1.076701587
1.075666004
1.075036938
1.074671347
1.074467821
1.074359152
1.074303436
1.074275973
1.074262943
1.074256987
1.074254361
1.074253243
1.074252783
1.0742526
1.07425253
1.074252503
1.074252494
1.074252491
1.074252489
1.074252489
1.074252489
1.074252489
1.074252489
1.074252489
1.074252489
1.074252489
1.074252489
1.074252489
1.074252489
1.074252489
1.074252489
1.074252489
1.074252489
55298.12452
55298.04639
55297.84311
55297.44567
55296.75824
55295.67935
55294.29026
55292.7148
1.11505309
1.104980245
1.09712446
1.090956373
1.086147068
1.082470949
1.079743351
1.077791723
1.076450354
1.075566531
1.075008683
1.074671394
1.074475947
1.074367326
1.074309378
1.074279673
1.074265027
1.074258075
1.074254894
1.074253491
1.074252893
1.074252647
1.074252549
1.074252511
1.074252497
1.074252492
1.07425249
1.074252489
1.074252489
1.074252489
1.074252489
1.074252489
1.074252489
1.074252489
1.074252489
1.074252489
1.074252489
1.074252489
1.074252489
1.074252489
1.074252489
1.074252489
55297.84843
55297.72761
55297.45302
55296.9695
55296.19956
55295.13221
55293.96315
55292.67886
1.101521748
1.093913039
1.088297357
1.084142499
1.081081247
1.078853779
1.077266169
1.076165339
1.07542655
1.074948319
1.074650362
1.074471888
1.074369152
1.074312317
1.074282089
1.074266623
1.074259007
1.074255393
1.07425374
1.07425301
1.074252699
1.074252571
1.07425252
1.0742525
1.074252493
1.07425249
1.074252489
1.074252489
1.074252489
1.074252489
1.074252489
1.074252489
1.074252489
1.074252489
1.074252489
1.074252489
1.074252489
1.074252489
1.074252489
1.074252489
1.074252489
1.074252489
55297.5037
55297.33606
55296.98211
55296.40368
55295.56858
55294.60358
55293.65252
55292.65825
1.092674747
1.087049242
1.083049036
1.080219889
1.078233845
1.076855441
1.075914249
1.075285232
1.074875694
1.074616933
1.074458728
1.074365323
1.074312136
1.074282947
1.074267512
1.074259648
1.074255786
1.074253957
1.074253121
1.074252752
1.074252595
1.07425253
1.074252505
1.074252495
1.074252491
1.07425249
1.074252489
1.074252489
1.074252489
1.074252489
1.074252489
1.074252489
1.074252489
1.074252489
1.074252489
1.074252489
1.074252489
1.074252489
1.074252489
1.074252489
1.074252489
1.074252489
55297.01762
55296.79506
55296.35181
55295.69162
55294.87718
55294.08429
55293.35534
55292.64263
1.086290022
1.082379313
1.079667266
1.077808657
1.076550406
1.075710183
1.075158017
1.074801965
1.074577411
1.074439339
1.074356802
1.074308948
1.074282086
1.074267506
1.074259861
1.07425599
1.074254097
1.074253204
1.074252796
1.074252617
1.074252541
1.074252509
1.074252496
1.074252492
1.07425249
1.074252489
1.074252489
1.074252489
1.074252489
1.074252489
1.074252489
1.074252489
1.074252489
1.074252489
1.074252489
1.074252489
1.074252489
1.074252489
1.074252489
1.074252489
1.074252489
1.074252489
55296.19221
55295.90679
55295.39621
55294.75512
55294.10739
55293.55441
55293.06953
55292.62094
1.081152962
1.078811832
1.077223184
1.076158077
1.075454287
1.074996659
1.074704211
1.074520819
1.074408179
1.074340565
1.074300986
1.074278443
1.074265972
1.074259281
1.074255805
1.074254057
1.074253207
1.074252807
1.074252626
1.074252546
1.074252512
1.074252498
1.074252492
1.07425249
1.074252489
1.074252489
1.074252489
1.074252489
1.074252489
1.074252489
1.074252489
1.074252489
1.074252489
1.074252489
1.074252489
1.074252489
1.074252489
1.074252489
1.074252489
1.074252489
1.074252489
1.074252489
55294.47436
55294.19152
55293.78728
55293.44552
55293.17156
55292.95445
55292.76922
55292.59949
1.076532101
1.075731531
1.075203321
1.074854686
1.07462735