/*--------------------------------*- C++ -*----------------------------------*\
  =========                 |
  \\      /  F ield         | OpenFOAM: The Open Source CFD Toolbox
   \\    /   O peration     | Website:  https://openfoam.org
    \\  /    A nd           | Version:  6
     \\/     M anipulation  |
\*---------------------------------------------------------------------------*/
FoamFile
{
    version     2.0;
    format      ascii;
    class       volScalarField;
    location    "0.15";
    object      Temperature;
}
// * * * * * * * * * * * * * * * * * * * * * * * * * * * * * * * * * * * * * //

dimensions      [0 0 0 1 0 0 0];

internalField   nonuniform List<scalar> 
2500
(
327.8536512
323.3444871
317.1112811
312.0259633
308.0656082
304.9978455
302.4283297
300.1103266
300.0529032
300.0343377
300.0220812
300.0139881
300.0087092
300.0053224
300.0031889
300.0018708
300.001073
300.0006008
300.0003279
300.0001742
300.0000899
300.0000451
300.0000219
300.0000103
300.0000047
300.0000021
300.0000009
300.0000004
300.0000002
300.0000001
300
300
300
300
300
300
300
300
300
300
300
300
300
300
300
300
300
300
300
300
358.1890361
352.7660016
343.4637828
332.4560193
322.0276789
313.6286177
306.6163404
300.315486
300.1598557
300.1057255
300.0689353
300.0442421
300.0279128
300.017289
300.0104971
300.0062366
300.0036192
300.0020477
300.0011277
300.0006036
300.0003136
300.000158
300.0000771
300.0000365
300.0000167
300.0000074
300.0000032
300.0000013
300.0000005
300.0000002
300.0000001
300
300
300
300
300
300
300
300
300
300
300
300
300
300
300
300
300
300
300
374.853693
370.209742
361.2955099
348.7861454
334.497857
321.668162
310.7114753
300.5303666
300.278314
300.1881953
300.1255344
300.0825125
300.0533493
300.033857
300.0210389
300.0127696
300.0075525
300.0043438
300.0024254
300.0013129
300.0006883
300.0003493
300.0001715
300.0000814
300.0000374
300.0000166
300.0000072
300.000003
300.0000012
300.0000005
300.0000002
300.0000001
300
300
300
300
300
300
300
300
300
300
300
300
300
300
300
300
300
300
385.4133255
381.7052856
374.1061884
362.3177855
346.5511022
329.9573141
315.0872237
300.7794537
300.4249009
300.2958137
300.2036754
300.1383332
300.0923735
300.0604305
300.0385975
300.0239955
300.0144837
300.0084716
300.0047948
300.0026236
300.0013871
300.0007084
300.0003494
300.0001665
300.0000767
300.0000342
300.0000147
300.0000061
300.0000025
300.000001
300.0000004
300.0000001
300
300
300
300
300
300
300
300
300
300
300
300
300
300
300
300
300
300
393.2698806
390.4807624
384.2859131
373.8422901
358.3343846
338.8461786
319.7948481
301.0910648
300.6268526
300.4532973
300.324546
300.2289213
300.1582635
300.1067404
300.06996
300.0444279
300.0272789
300.0161718
300.0092489
300.0051009
300.0027127
300.0013913
300.0006884
300.0003288
300.0001516
300.0000676
300.0000291
300.0000121
300.0000049
300.0000019
300.0000007
300.0000003
300.0000001
300
300
300
300
300
300
300
300
300
300
300
300
300
300
300
300
300
399.7970984
397.9285577
393.1475944
384.123912
369.4559315
348.5642008
324.9062557
301.5152974
300.9331412
300.7054995
300.5267434
300.3856282
300.2751272
300.19038
300.1273389
300.0821468
300.0510438
300.0305306
300.0175748
300.009738
300.0051955
300.0026704
300.001323
300.0006323
300.0002917
300.00013
300.000056
300.0000233
300.0000094
300.0000037
300.0000014
300.0000005
300.0000002
300.0000001
300
300
300
300
300
300
300
300
300
300
300
300
300
300
300
300
405.5840717
404.6277753
401.3377495
393.8561079
380.1747806
358.6104213
330.6253296
302.1448956
301.432574
301.1333492
300.8796378
300.6645394
300.4858523
300.342455
300.2321894
300.1512597
300.0946391
300.0568742
300.0328413
300.0182318
300.0097372
300.0050067
300.0024804
300.0011849
300.0005462
300.0002432
300.0001047
300.0000436
300.0000176
300.0000069
300.0000026
300.000001
300.0000003
300.0000001
300
300
300
300
300
300
300
300
300
300
300
300
300
300
300
300
411.016107
410.8595982
409.1376633
403.4980377
391.2603981
369.6410743
337.9715418
303.1589534
302.283267
301.879547
301.5048049
301.1632788
300.864521
300.616271
300.4209923
300.2755752
300.1729153
300.1040718
300.0601285
300.0333768
300.0178159
300.0091529
300.0045297
300.0021614
300.0009952
300.0004425
300.0001902
300.0000791
300.0000318
300.0000124
300.0000047
300.0000017
300.0000006
300.0000002
300.0000001
300
300
300
300
300
300
300
300
300
300
300
300
300
300
300
416.5399446
416.8826025
416.6404099
413.1329346
402.9135029
381.9949653
347.4618808
304.8330059
303.7530723
303.1878221
302.6090305
302.0465063
301.5348774
301.0999945
300.7535197
300.4937614
300.3097985
300.1863096
300.1075087
300.0595873
300.0317543
300.0162858
300.008046
300.0038327
300.0017618
300.0007822
300.0003357
300.0001394
300.000056
300.0000218
300.0000082
300.000003
300.0000011
300.0000004
300.0000001
300
300
300
300
300
300
300
300
300
300
300
300
300
300
300
422.5849639
423.0687194
423.9372311
422.7021476
415.0903596
395.7536378
359.3389971
307.6157731
306.2900091
305.4646373
304.533774
303.5827826
302.6961968
301.933889
301.323799
300.8660302
300.5422055
300.3252979
300.1872465
300.1035272
300.0550383
300.028163
300.0138839
300.0066001
300.0030282
300.001342
300.000575
300.0002383
300.0000956
300.0000372
300.000014
300.0000051
300.0000018
300.0000006
300.0000002
300.0000001
300
300
300
300
300
300
300
300
300
300
300
300
300
300
429.2489726
429.8588598
431.2252627
432.1620301
427.720586
410.9941028
373.7420931
312.2538573
310.6350582
309.3717416
307.8252627
306.1943214
304.6567167
303.3317305
302.2732537
301.4818872
300.9244476
300.5526862
300.3170782
300.1747649
300.0926422
300.0472785
300.0232503
300.0110278
300.0050492
300.0022334
300.0009552
300.0003953
300.0001584
300.0000615
300.0000232
300.0000085
300.000003
300.000001
300.0000003
300.0000001
300
300
300
300
300
300
300
300
300
300
300
300
300
300
436.5334547
437.1695805
438.905308
441.5631809
440.8048592
427.9756308
391.356091
319.9954869
317.9906152
315.9549831
313.3257548
310.5177686
307.8720576
305.6040123
303.8041555
302.4676399
301.5322743
300.9121684
300.521272
300.2862913
300.1512735
300.0769752
300.0377544
300.0178644
300.0081616
300.0036031
300.0015382
300.0006355
300.0002543
300.0000986
300.0000371
300.0000135
300.0000048
300.0000017
300.0000006
300.0000002
300.0000001
300
300
300
300
300
300
300
300
300
300
300
300
300
444.4978531
445.2095163
447.2284502
451.0122147
454.3861056
447.1228295
413.5242951
332.8685169
330.253598
326.8073662
322.278707
317.4676724
312.9813457
309.1774046
306.1895538
303.9911881
302.4650475
301.4604009
300.830982
300.4546385
300.2394036
300.1214469
300.0594033
300.0280389
300.0127815
300.0056313
300.0023997
300.0009898
300.0003955
300.0001532
300.0000575
300.000021
300.0000074
300.0000026
300.0000009
300.0000003
300.0000001
300
300
300
300
300
300
300
300
300
300
300
300
300
453.162971
453.9838331
456.2926468
461.2198123
468.4101753
468.7720334
441.9109998
354.0278381
350.3111067
344.2480284
336.4264234
328.2840599
320.8270633
314.6008709
309.7735176
306.2603416
303.8438601
302.265515
301.2832416
300.6992618
300.3669146
300.1855486
300.0905046
300.042613
300.019382
300.0085224
300.0036252
300.0014929
300.0005956
300.0002303
300.0000864
300.0000315
300.0000111
300.0000038
300.0000013
300.0000004
300.0000001
300
300
300
300
300
300
300
300
300
300
300
300
300
462.5673728
463.5170362
466.2284808
472.0018454
482.3522477
492.7709841
478.0365325
388.0915377
382.3587901
371.4671064
358.0568847
344.5321091
332.4370845
322.5248728
314.9535721
309.5100157
305.8030378
303.4018576
301.9178898
301.0408319
300.5441921
300.2743341
300.1334407
300.0626748
300.0284447
300.0124829
300.0053007
300.0021794
300.0008682
300.0003354
300.0001257
300.0000457
300.0000162
300.0000055
300.0000019
300.0000006
300.0000002
300.0000001
300
300
300
300
300
300
300
300
300
300
300
300
472.721848
473.8367411
477.1047025
484.0071143
497.4956423
518.0422066
522.7059188
441.2324948
432.1223559
412.5372211
389.9295612
368.0088439
348.9418475
333.6382571
322.1369263
313.9738887
308.4727798
304.9398595
302.7719094
301.4981952
300.7805556
300.3922744
300.1902926
300.089164
300.0403813
300.017688
300.0074983
300.0030784
300.0012247
300.0004725
300.0001768
300.0000643
300.0000227
300.0000078
300.0000026
300.0000008
300.0000003
300.0000001
300
300
300
300
300
300
300
300
300
300
300
300
483.5732826
484.9233157
488.902204
497.3515428
513.4742972
542.56492
575.3248612
520.6885393
506.7478095
472.1373229
434.9890194
400.5070555
371.401253
348.5506813
331.6650924
319.8383282
311.9521607
306.9308157
303.8711569
302.0840368
301.0820597
300.5421805
300.2623293
300.1226377
300.0554295
300.0242362
300.010258
300.0042054
300.0016709
300.0006439
300.0002408
300.0000874
300.0000308
300.0000106
300.0000035
300.0000011
300.0000004
300.0000001
300
300
300
300
300
300
300
300
300
300
300
300
494.982436
496.6610025
501.5625971
512.1312718
532.1722311
570.1208413
632.9559853
633.4180296
614.0072604
554.8039662
495.780455
443.402081
400.5308285
367.6197698
343.70911
327.1811234
316.2744886
309.3879231
305.220306
302.7997113
301.4489194
300.7239597
300.3494257
300.1630059
300.0735367
300.0321002
300.0135664
300.0055544
300.0022044
300.0008485
300.000317
300.000115
300.0000405
300.0000139
300.0000046
300.0000015
300.0000005
300.0000001
300
300
300
300
300
300
300
300
300
300
300
300
506.7099739
508.8163455
514.9090494
528.1540919
553.6419939
601.1225292
691.5200275
784.0113896
760.4333017
663.5720578
573.5402074
497.074612
436.3493274
390.7426996
358.149751
335.9044643
321.3707933
312.2669125
306.7928489
303.6302215
301.8730583
300.9334521
300.449526
300.2092916
300.0942555
300.0410821
300.0173393
300.0070906
300.002811
300.001081
300.0004035
300.0001462
300.0000515
300.0000176
300.0000059
300.0000019
300.0000006
300.0000002
300.0000001
300
300
300
300
300
300
300
300
300
300
300
518.3985515
521.024367
528.5884527
545.121947
577.7309334
639.018346
758.6331094
971.8132798
948.1714399
798.0580881
667.0694671
560.2660761
477.817963
417.1584135
374.4712295
345.6789576
327.0409414
315.4514628
308.5238934
304.5407437
302.3364715
301.1616788
300.5583069
300.2594835
300.1166811
300.0507882
300.0214104
300.0087463
300.0034641
300.001331
300.0004964
300.0001798
300.0000633
300.0000217
300.0000072
300.0000023
300.0000007
300.0000002
300.0000001
300
300
300
300
300
300
300
300
300
300
300
529.5689586
532.7842057
542.0401557
562.436373
603.6167608
683.8964728
841.3368938
1186.879057
1171.040336
952.4384297
771.7045685
629.5648904
522.5907038
445.32985
391.7075477
355.9201595
332.9438716
318.7493901
310.3088052
305.4762108
302.811136
301.3948458
300.6691989
300.3105529
300.1394616
300.0606339
300.025535
300.0104218
300.0041244
300.0015836
300.0005902
300.0002137
300.0000752
300.0000257
300.0000086
300.0000028
300.0000009
300.0000003
300.0000001
300
300
300
300
300
300
300
300
300
300
300
539.6431998
543.4748945
554.5005367
578.9948841
629.2071479
730.1416505
929.4373781
1413.280017
1411.952683
1114.282472
878.8793396
699.2891596
567.017627
472.9811184
408.4804059
365.8175281
338.6169551
321.9045564
312.01009
306.3650914
303.2609939
301.6153441
300.7738707
300.3586809
300.1609004
300.0698887
300.029408
300.0119936
300.0047434
300.0018202
300.000678
300.0002453
300.0000863
300.0000295
300.0000098
300.0000032
300.000001
300.0000003
300.0000001
300
300
300
300
300
300
300
300
300
300
300
547.995571
552.4156487
565.1381094
593.6450829
652.9160738
775.1551298
1020.242672
1625.367307
1642.05607
1264.942158
976.7159442
761.9909524
606.5094802
497.339544
423.1510216
374.4254981
343.5285597
324.6261443
313.4731522
307.1275954
303.6460882
301.8037669
300.8631827
300.3996942
300.1791499
300.0777592
300.0326989
300.0133283
300.0052686
300.0020208
300.0007525
300.0002722
300.0000957
300.0000327
300.0000109
300.0000035
300.0000011
300.0000003
300.0000001
300
300
300
300
300
300
300
300
300
300
300
554.0134339
558.918995
573.0602859
605.0186942
672.386137
813.3898229
1106.867089
1789.829015
1825.135599
1382.567605
1051.969595
809.6712171
636.2773915
515.5755445
434.0757242
380.8085162
347.1583357
326.6319611
314.5490273
307.6872776
303.9283166
301.9416809
300.9284825
300.4296528
300.1924698
300.0834997
300.0350978
300.0143006
300.0056511
300.0021669
300.0008067
300.0002917
300.0001025
300.000035
300.0000117
300.0000038
300.0000012
300.0000004
300.0000001
300
300
300
300
300
300
300
300
300
300
300
557.17929
562.3705254
577.3571441
611.4308821
684.029967
837.4842237
1167.853149
1882.471557
1927.85655
1447.228415
1093.017181
835.4928897
652.3095295
525.3551769
439.9150294
384.2113547
349.0893658
327.6972565
315.1196455
307.983785
304.0776951
302.014619
300.9629944
300.4454774
300.1995022
300.0865292
300.0363633
300.0148134
300.0058527
300.0022438
300.0008352
300.000302
300.0001061
300.0000363
300.0000121
300.0000039
300.0000012
300.0000004
300.0000001
300
300
300
300
300
300
300
300
300
300
300
557.1792914
562.3705265
577.3571439
611.4308744
684.0299289
837.484092
1167.852836
1882.471502
1927.856539
1447.228412
1093.01718
835.492889
652.3095292
525.3551768
439.9150293
384.2113547
349.0893658
327.6972565
315.1196455
307.983785
304.0776951
302.014619
300.9629944
300.4454774
300.1995022
300.0865292
300.0363633
300.0148134
300.0058527
300.0022438
300.0008352
300.000302
300.0001061
300.0000363
300.0000121
300.0000039
300.0000012
300.0000004
300.0000001
300
300
300
300
300
300
300
300
300
300
300
554.0134381
558.9189989
573.0602872
605.0186813
672.386067
813.3895831
1106.866529
1789.828918
1825.135581
1382.567598
1051.969592
809.6712153
636.2773906
515.5755441
434.0757241
380.8085162
347.1583357
326.6319611
314.5490273
307.6872776
303.9283166
301.9416809
300.9284825
300.4296528
300.1924698
300.0834997
300.0350978
300.0143006
300.0056511
300.0021669
300.0008067
300.0002917
300.0001025
300.000035
300.0000117
300.0000038
300.0000012
300.0000004
300.0000001
300
300
300
300
300
300
300
300
300
300
300
547.9955783
552.4156562
565.1381164
593.6450819
652.9160285
775.1549253
1020.242125
1625.367139
1642.056043
1264.942148
976.7159398
761.9909505
606.5094794
497.3395437
423.1510216
374.4254981
343.5285597
324.6261444
313.4731522
307.1275954
303.6460882
301.8037669
300.8631827
300.3996942
300.1791499
300.0777592
300.0326989
300.0133283
300.0052686
300.0020208
300.0007525
300.0002722
300.0000957
300.0000327
300.0000109
300.0000035
300.0000011
300.0000003
300.0000001
300
300
300
300
300
300
300
300
300
300
300
539.6432105
543.4749063
554.5005516
578.9949033
629.2071598
730.1415841
929.4370783
1413.279706
1411.952654
1114.282465
878.879337
699.2891587
567.0176268
472.9811185
408.480406
365.8175282
338.6169552
321.9045565
312.0100901
306.3650914
303.260994
301.6153441
300.7738707
300.3586809
300.1609004
300.0698887
300.029408
300.0119936
300.0047434
300.0018202
300.000678
300.0002453
300.0000863
300.0000295
300.0000098
300.0000032
300.000001
300.0000003
300.0000001
300
300
300
300
300
300
300
300
300
300
300
529.5689728
532.7842216
542.0401773
562.4364077
603.6168174
683.8965341
841.3368466
1186.878538
1171.040316
952.4384299
771.7045695
629.5648914
522.5907047
445.3298506
391.7075482
355.9201598
332.9438718
318.7493902
310.3088052
305.4762108
302.811136
301.3948458
300.6691989
300.3105529
300.1394616
300.0606339
300.025535
300.0104218
300.0041244
300.0015836
300.0005902
300.0002137
300.0000752
300.0000257
300.0000086
300.0000028
300.0000009
300.0000003
300.0000001
300
300
300
300
300
300
300
300
300
300
300
518.398569
521.0243865
528.5884787
545.1219887
577.7310071
639.0184625
758.6331489
971.8123333
948.171436
798.0580959
667.0694719
560.2660792
477.8179649
417.1584147
374.4712303
345.678958
327.0409417
315.4514629
308.5238935
304.5407438
302.3364715
301.1616788
300.5583069
300.2594835
300.1166811
300.0507882
300.0214104
300.0087463
300.0034641
300.001331
300.0004964
300.0001798
300.0000633
300.0000217
300.0000072
300.0000023
300.0000007
300.0000002
300.0000001
300
300
300
300
300
300
300
300
300
300
300
506.7099945
508.8163681
514.909078
528.1541352
553.6420709
601.122678
691.5202454
784.0105416
760.4333134
663.5720687
573.5402141
497.0746162
436.34933
390.7427013
358.1497521
335.904465
321.3707936
312.2669127
306.792849
303.6302216
301.8730583
300.9334521
300.449526
300.2092916
300.0942555
300.0410821
300.0173393
300.0070906
300.002811
300.001081
300.0004035
300.0001462
300.0000515
300.0000176
300.0000059
300.0000019
300.0000006
300.0000002
300.0000001
300
300
300
300
300
300
300
300
300
300
300
494.9824597
496.6610277
501.562627
512.1313133
532.1723013
570.1209813
632.9562156
633.4179174
614.0072754
554.8039764
495.7804618
443.4020855
400.5308313
367.6197716
343.7091111
327.1811241
316.2744889
309.3879233
305.2203061
302.7997113
301.4489195
300.7239597
300.3494257
300.1630059
300.0735367
300.0321002
300.0135664
300.0055544
300.0022044
300.0008485
300.000317
300.000115
300.0000405
300.0000139
300.0000046
300.0000015
300.0000005
300.0000001
300
300
300
300
300
300
300
300
300
300
300
300
483.5733094
484.9233434
488.9022347
497.3515819
513.4743611
542.5650434
575.3250451
520.6885499
506.7478205
472.137331
434.9890252
400.5070595
371.4012556
348.550683
331.6650934
319.8383289
311.9521611
306.9308159
303.871157
302.0840368
301.0820597
300.5421805
300.2623293
300.1226377
300.0554295
300.0242362
300.010258
300.0042054
300.0016709
300.0006439
300.0002408
300.0000874
300.0000308
300.0000106
300.0000035
300.0000011
300.0000004
300.0000001
300
300
300
300
300
300
300
300
300
300
300
300
472.7218782
473.8367715
477.1047342
484.0071516
497.4957015
518.042313
522.7060492
441.2325003
432.1223635
412.5372272
389.9295658
368.0088471
348.9418497
333.6382585
322.1369271
313.9738893
308.4727801
304.9398596
302.7719094
301.4981952
300.7805556
300.3922744
300.1902926
300.089164
300.0403813
300.017688
300.0074983
300.0030784
300.0012247
300.0004725
300.0001768
300.0000643
300.0000227
300.0000078
300.0000026
300.0000008
300.0000003
300.0000001
300
300
300
300
300
300
300
300
300
300
300
300
462.567407
463.5170702
466.2285147
472.001883
482.3523031
492.7710649
478.0366189
388.0915429
382.3587954
371.4671108
358.056888
344.5321115
332.4370862
322.5248739
314.9535727
309.5100161
305.803038
303.4018578
301.9178899
301.0408319
300.5441921
300.2743341
300.1334407
300.0626748
300.0284447
300.0124829
300.0053007
300.0021794
300.0008682
300.0003354
300.0001257
300.0000457
300.0000162
300.0000055
300.0000019
300.0000006
300.0000002
300.0000001
300
300
300
300
300
300
300
300
300
300
300
300
453.1630096
453.9838714
456.2926838
461.2198515
468.4102256
468.7720921
441.911055
354.0278424
350.3111104
344.2480315
336.4264257
328.2840616
320.8270645
314.6008716
309.7735181
306.2603419
303.8438603
302.2655151
301.2832417
300.6992619
300.3669146
300.1855486
300.0905046
300.042613
300.0193821
300.0085224
300.0036252
300.0014929
300.0005956
300.0002303
300.0000864
300.0000315
300.0000111
300.0000038
300.0000013
300.0000004
300.0000001
300
300
300
300
300
300
300
300
300
300
300
300
300
444.4978961
445.209559
447.2284898
451.0122522
454.3861436
447.1228698
413.52433
332.8685202
330.2536008
326.8073683
322.2787086
317.4676735
312.9813464
309.1774051
306.1895541
303.9911883
302.4650476
301.460401
300.8309821
300.4546385
300.2394036
300.1214469
300.0594033
300.0280389
300.0127815
300.0056313
300.0023997
300.0009898
300.0003955
300.0001532
300.0000575
300.000021
300.0000074
300.0000026
300.0000009
300.0000003
300.0000001
300
300
300
300
300
300
300
300
300
300
300
300
300
436.5335012
437.1696263
438.9053495
441.5632128
440.8048881
427.9756592
391.3561164
319.99549
317.9906175
315.9549846
313.3257559
310.5177693
307.8720581
305.6040127
303.8041557
302.4676401
301.5322744
300.9121685
300.521272
300.2862913
300.1512735
300.0769752
300.0377544
300.0178644
300.0081616
300.0036031
300.0015382
300.0006355
300.0002543
300.0000986
300.0000371
300.0000135
300.0000048
300.0000017
300.0000006
300.0000002
300.0000001
300
300
300
300
300
300
300
300
300
300
300
300
300
429.249021
429.8589056
431.2253023
432.1620605
427.7206122
410.9941264
373.7421124
312.2538581
310.6350596
309.3717426
307.8252633
306.1943218
304.6567169
303.3317307
302.2732538
301.4818873
300.9244476
300.5526862
300.3170782
300.1747649
300.0926422
300.0472785
300.0232503
300.0110278
300.0050492
300.0022334
300.0009552
300.0003953
300.0001584
300.0000615
300.0000232
300.0000085
300.000003
300.000001
300.0000003
300.0000001
300
300
300
300
300
300
300
300
300
300
300
300
300
300
422.5850132
423.0687672
423.9372716
422.7021816
415.0903894
395.753662
359.3390124
307.615774
306.29001
305.4646379
304.5337743
303.5827828
302.6961969
301.9338891
301.323799
300.8660303
300.5422055
300.3252979
300.1872465
300.1035272
300.0550383
300.028163
300.0138839
300.0066001
300.0030282
300.001342
300.000575
300.0002383
300.0000956
300.0000372
300.000014
300.0000051
300.0000018
300.0000006
300.0000002
300.0000001
300
300
300
300
300
300
300
300
300
300
300
300
300
300
416.5399958
416.8826514
416.6404537
413.1329746
402.9135389
381.9949932
347.4618958
304.8330068
303.7530728
303.1878224
302.6090307
302.0465064
301.5348775
301.0999945
300.7535197
300.4937614
300.3097985
300.1863096
300.1075087
300.0595873
300.0317543
300.0162858
300.008046
300.0038327
300.0017618
300.0007822
300.0003357
300.0001394
300.000056
300.0000218
300.0000082
300.000003
300.0000011
300.0000004
300.0000001
300
300
300
300
300
300
300
300
300
300
300
300
300
300
300
411.016158
410.8596475
409.1377095
403.4980818
391.260439
369.6411073
337.9715598
303.1589541
302.2832673
301.8795471
301.5048049
301.1632788
300.864521
300.616271
300.4209923
300.2755752
300.1729153
300.1040718
300.0601285
300.0333768
300.0178159
300.0091529
300.0045297
300.0021614
300.0009952
300.0004425
300.0001902
300.0000791
300.0000318
300.0000124
300.0000047
300.0000017
300.0000006
300.0000002
300.0000001
300
300
300
300
300
300
300
300
300
300
300
300
300
300
300
405.5841216
404.6278227
401.3377941
393.8561509
380.1748213
358.610454
330.6253468
302.144896
301.4325741
301.1333492
300.8796378
300.6645394
300.4858523
300.342455
300.2321893
300.1512597
300.0946391
300.0568742
300.0328413
300.0182318
300.0097372
300.0050067
300.0024804
300.0011849
300.0005462
300.0002432
300.0001047
300.0000436
300.0000176
300.0000069
300.0000026
300.000001
300.0000003
300.0000001
300
300
300
300
300
300
300
300
300
300
300
300
300
300
300
300
399.797145
397.9285999
393.1476324
384.1239474
369.4559637
348.5642248
324.9062687
301.5152977
300.9331412
300.7054995
300.5267434
300.3856281
300.2751272
300.19038
300.1273389
300.0821468
300.0510438
300.0305306
300.0175748
300.009738
300.0051955
300.0026704
300.001323
300.0006323
300.0002917
300.00013
300.000056
300.0000233
300.0000094
300.0000037
300.0000014
300.0000005
300.0000002
300.0000001
300
300
300
300
300
300
300
300
300
300
300
300
300
300
300
300
393.2699222
390.4807972
384.2859409
373.8423121
358.3344001
338.8461899
319.7948547
301.0910649
300.6268525
300.4532973
300.3245459
300.2289212
300.1582634
300.1067404
300.06996
300.0444279
300.0272789
300.0161718
300.0092489
300.0051009
300.0027127
300.0013913
300.0006884
300.0003288
300.0001516
300.0000676
300.0000291
300.0000121
300.0000049
300.0000019
300.0000007
300.0000003
300.0000001
300
300
300
300
300
300
300
300
300
300
300
300
300
300
300
300
300
385.4133625
381.7053129
374.1062048
362.3177919
346.5511025
329.9573148
315.0872247
300.7794536
300.4249009
300.2958136
300.2036753
300.1383332
300.0923735
300.0604305
300.0385974
300.0239955
300.0144837
300.0084716
300.0047948
300.0026236
300.0013871
300.0007084
300.0003494
300.0001665
300.0000767
300.0000342
300.0000147
300.0000061
300.0000025
300.000001
300.0000004
300.0000001
300
300
300
300
300
300
300
300
300
300
300
300
300
300
300
300
300
300
374.8537267
370.2097633
361.2955165
348.7861415
334.4978523
321.6681594
310.7114742
300.5303665
300.278314
300.1881952
300.1255344
300.0825125
300.0533493
300.033857
300.0210389
300.0127696
300.0075525
300.0043438
300.0024254
300.0013129
300.0006883
300.0003493
300.0001715
300.0000814
300.0000374
300.0000166
300.0000072
300.000003
300.0000012
300.0000005
300.0000002
300.0000001
300
300
300
300
300
300
300
300
300
300
300
300
300
300
300
300
300
300
358.1890666
352.7660172
343.4637833
332.4560148
322.0276753
313.6286157
306.6163395
300.3154859
300.1598556
300.1057255
300.0689353
300.0442421
300.0279128
300.017289
300.0104971
300.0062366
300.0036192
300.0020477
300.0011277
300.0006036
300.0003136
300.000158
300.0000771
300.0000365
300.0000167
300.0000074
300.0000032
300.0000013
300.0000005
300.0000002
300.0000001
300
300
300
300
300
300
300
300
300
300
300
300
300
300
300
300
300
300
300
327.8536701
323.3444942
317.1112811
312.0259618
308.0656076
304.9978452
302.4283297
300.1103266
300.0529032
300.0343377
300.0220812
300.0139881
300.0087092
300.0053224
300.0031889
300.0018708
300.001073
300.0006008
300.0003279
300.0001742
300.0000899
300.0000451
300.0000219
300.0000103
300.0000047
300.0000021
300.0000009
300.0000004
300.0000002
300.0000001
300
300
300
300
300
300
300
300
300
300
300
300
300
300
300
300
300
300
300
300
)
;

boundaryField
{
    lowerWall
    {
        type            fixedValue;
        value           uniform 300;
    }
    atmosphere
    {
        type            zeroGradient;
    }
    rightWall
    {
        type            empty;
    }
    leftWall
    {
        type            empty;
    }
    frontAndBack
    {
        type            fixedValue;
        value           uniform 300;
    }
}


// ************************************************************************* //
