/*--------------------------------*- C++ -*----------------------------------*\
  =========                 |
  \\      /  F ield         | OpenFOAM: The Open Source CFD Toolbox
   \\    /   O peration     | Website:  https://openfoam.org
    \\  /    A nd           | Version:  6
     \\/     M anipulation  |
\*---------------------------------------------------------------------------*/
FoamFile
{
    version     2.0;
    format      ascii;
    class       volVectorField;
    location    "0.15";
    object      U;
}
// * * * * * * * * * * * * * * * * * * * * * * * * * * * * * * * * * * * * * //

dimensions      [0 1 -1 0 0 0 0];

internalField   nonuniform List<vector> 
2500
(
(0 -1.408761726 -0.7007017196)
(0 -0.02211488407 -0.332559918)
(0 0.1224059722 -0.1230007655)
(0 0.2875376902 -0.03984571124)
(0 0.3010140136 0.00378666817)
(0 0.2330456489 0.04506690494)
(0 0.03359147375 0.07118005149)
(0 -0.0009844441695 0.002384055401)
(0 -6.176210165e-14 9.022031477e-18)
(0 -1.228405798e-13 -5.346994224e-16)
(0 -1.211019847e-13 -1.050231298e-15)
(0 -1.185248127e-13 -1.527042588e-15)
(0 -1.150463074e-13 -1.950990188e-15)
(0 -1.107834216e-13 -2.311384201e-15)
(0 -1.058697516e-13 -2.60177579e-15)
(0 -1.004475661e-13 -2.819940751e-15)
(0 -9.465981659e-14 -2.967414427e-15)
(0 -8.864334662e-14 -3.048761573e-15)
(0 -8.25236752e-14 -3.070733523e-15)
(0 -7.641145936e-14 -3.041432959e-15)
(0 -7.040053705e-14 -2.969569476e-15)
(0 -6.45673216e-14 -2.863852735e-15)
(0 -5.897125598e-14 -2.732539585e-15)
(0 -5.365602431e-14 -2.583129577e-15)
(0 -4.865124274e-14 -2.422189821e-15)
(0 -4.397439642e-14 -2.255283831e-15)
(0 -3.963284099e-14 -2.086977883e-15)
(0 -3.562573797e-14 -1.920900499e-15)
(0 -3.19458384e-14 -1.759834593e-15)
(0 -2.858106548e-14 -1.605826143e-15)
(0 -2.551587506e-14 -1.460297596e-15)
(0 -2.273239255e-14 -1.324157903e-15)
(0 -2.021133832e-14 -1.197904103e-15)
(0 -1.793276097e-14 -1.0817117e-15)
(0 -1.58766022e-14 -9.755127422e-16)
(0 -1.402311782e-14 -8.790616382e-16)
(0 -1.23531786e-14 -7.919894576e-16)
(0 -1.08484729e-14 -7.138478739e-16)
(0 -9.491630494e-15 -6.441440782e-16)
(0 -8.266284211e-15 -5.823680257e-16)
(0 -7.157083455e-15 -5.280133171e-16)
(0 -6.149671184e-15 -4.805929016e-16)
(0 -5.230633601e-15 -4.3965065e-16)
(0 -4.387429929e-15 -4.047697107e-16)
(0 -3.608307913e-15 -3.755784442e-16)
(0 -2.882209122e-15 -3.51754688e-16)
(0 -2.198666507e-15 -3.33029287e-16)
(0 -1.547693809e-15 -3.191908128e-16)
(0 -9.196587424e-16 -3.100975299e-16)
(0 -3.050946895e-16 -3.05724304e-16)
(0 -1.375938901 -1.174055443)
(0 -0.7129847122 -0.7973118643)
(0 -0.275813741 -0.3554729834)
(0 -0.003374461074 -0.09074749688)
(0 0.04965298469 0.03556344834)
(0 0.06909976599 0.1311636331)
(0 -0.01788180285 0.1693822655)
(0 -0.0001384008392 0.005487970446)
(0 -6.229843556e-14 1.88895145e-17)
(0 -1.238995331e-13 -1.627277549e-15)
(0 -1.220943279e-13 -3.189388108e-15)
(0 -1.194255716e-13 -4.634056621e-15)
(0 -1.15830649e-13 -5.91660343e-15)
(0 -1.114342072e-13 -7.004252199e-15)
(0 -1.063783082e-13 -7.87767119e-15)
(0 -1.008132047e-13 -8.530651917e-15)
(0 -9.488863742e-14 -8.96852975e-15)
(0 -8.874666572e-14 -9.205841158e-15)
(0 -8.251634659e-14 -9.263674932e-15)
(0 -7.631029532e-14 -9.167083301e-15)
(0 -7.022295683e-14 -8.942801789e-15)
(0 -6.433029171e-14 -8.617412254e-15)
(0 -5.869053283e-14 -8.215989807e-15)
(0 -5.334567454e-14 -7.761208346e-15)
(0 -4.832339699e-14 -7.272840456e-15)
(0 -4.363918448e-14 -6.767570437e-15)
(0 -3.929845765e-14 -6.25903769e-15)
(0 -3.529859468e-14 -5.758035715e-15)
(0 -3.163076404e-14 -5.272804603e-15)
(0 -2.828152848e-14 -4.8093689e-15)
(0 -2.523420682e-14 -4.371885928e-15)
(0 -2.246999906e-14 -3.962980943e-15)
(0 -1.996889212e-14 -3.584054667e-15)
(0 -1.771036961e-14 -3.235555513e-15)
(0 -1.567395214e-14 -2.917213793e-15)
(0 -1.383959454e-14 -2.628238402e-15)
(0 -1.218796483e-14 -2.367478584e-15)
(0 -1.070062752e-14 -2.133554423e-15)
(0 -9.360150646e-15 -1.924960225e-15)
(0 -8.15015345e-15 -1.740144954e-15)
(0 -7.055308331e-15 -1.577573691e-15)
(0 -6.061308517e-15 -1.435773695e-15)
(0 -5.15481041e-15 -1.313368209e-15)
(0 -4.323357724e-15 -1.20910073e-15)
(0 -3.55529289e-15 -1.121852061e-15)
(0 -2.839659965e-15 -1.050652155e-15)
(0 -2.166102632e-15 -9.946887443e-16)
(0 -1.524762052e-15 -9.53315226e-16)
(0 -9.061922336e-16 -9.260625112e-16)
(0 -3.007214636e-16 -9.126697824e-16)
(0 -1.356563168 -1.429938962)
(0 -1.08414607 -1.278816817)
(0 -0.5971095058 -0.7771554569)
(0 -0.2313574956 -0.2876257872)
(0 -0.06802540976 0.005193306386)
(0 -0.0589914563 0.1339738635)
(0 -0.0286864439 0.1642005028)
(0 0.0003498971362 -0.003875762041)
(0 -6.338311921e-14 -2.694325183e-17)
(0 -1.260398279e-13 -2.784154618e-15)
(0 -1.241087638e-13 -5.445870887e-15)
(0 -1.21252028e-13 -7.903194521e-15)
(0 -1.174165029e-13 -1.007712174e-14)
(0 -1.127444893e-13 -1.191137099e-14)
(0 -1.073961513e-13 -1.337404612e-14)
(0 -1.015384247e-13 -1.44565312e-14)
(0 -9.533500584e-14 -1.517030208e-14)
(0 -8.893849181e-14 -1.554251387e-14)
(0 -8.248491735e-14 -1.561118043e-14)
(0 -7.609058622e-14 -1.5420583e-14)
(0 -6.985086601e-14 -1.501731976e-14)
(0 -6.384050962e-14 -1.444719797e-14)
(0 -5.811505208e-14 -1.375300577e-14)
(0 -5.271287496e-14 -1.297309188e-14)
(0 -4.765760483e-14 -1.214062175e-14)
(0 -4.296059365e-14 -1.128335741e-14)
(0 -3.862330626e-14 -1.042381271e-14)
(0 -3.463950488e-14 -9.579653839e-15)
(0 -3.099717158e-14 -8.764240367e-15)
(0 -2.768014681e-14 -7.987227202e-15)
(0 -2.46694871e-14 -7.25517142e-15)
(0 -2.194456129e-14 -6.572107088e-15)
(0 -1.948391289e-14 -5.940066374e-15)
(0 -1.72659201e-14 -5.359536391e-15)
(0 -1.526928509e-14 -4.829848986e-15)
(0 -1.347338261e-14 -4.349505758e-15)
(0 -1.185849462e-14 -3.916443595e-15)
(0 -1.040595454e-14 -3.528247582e-15)
(0 -9.098221024e-15 -3.182318668e-15)
(0 -7.918897677e-15 -2.87600334e-15)
(0 -6.852712196e-15 -2.606692079e-15)
(0 -5.885465702e-15 -2.371892622e-15)
(0 -5.003960636e-15 -2.169283293e-15)
(0 -4.195913781e-15 -1.996750876e-15)
(0 -3.449859338e-15 -1.852416742e-15)
(0 -2.755045806e-15 -1.734654314e-15)
(0 -2.101329578e-15 -1.642100247e-15)
(0 -1.479067576e-15 -1.573660748e-15)
(0 -8.790132988e-16 -1.528511695e-15)
(0 -2.917019607e-16 -1.506079325e-15)
(0 -1.200790892 -1.448308386)
(0 -1.283988102 -1.58520814)
(0 -0.886075353 -1.216552869)
(0 -0.4620027423 -0.6328201948)
(0 -0.1026750968 -0.08641363698)
(0 -0.08115807468 0.08436713883)
(0 -0.0121774317 0.09864247866)
(0 0.0003013732691 -0.009909051698)
(0 -6.507522574e-14 -5.921423541e-17)
(0 -1.293376754e-13 -4.047903536e-15)
(0 -1.272133678e-13 -7.906608324e-15)
(0 -1.240568225e-13 -1.145559281e-14)
(0 -1.198388255e-13 -1.457716763e-14)
(0 -1.147311315e-13 -1.718991317e-14)
(0 -1.089234684e-13 -1.925047047e-14)
(0 -1.026094607e-13 -2.075100036e-14)
(0 -9.597462008e-14 -2.171352759e-14)
(0 -8.918754407e-14 -2.218264322e-14)
(0 -8.239441572e-14 -2.221787556e-14)
(0 -7.571643465e-14 -2.188668424e-14)
(0 -6.924957181e-14 -2.125863783e-14)
(0 -6.306597772e-14 -2.040099748e-14)
(0 -5.721642674e-14 -1.937568537e-14)
(0 -5.173329052e-14 -1.823746969e-14)
(0 -4.663366252e-14 -1.703312957e-14)
(0 -4.192237544e-14 -1.58013503e-14)
(0 -3.759475408e-14 -1.457312008e-14)
(0 -3.363902234e-14 -1.337243723e-14)
(0 -3.00383374e-14 -1.22171791e-14)
(0 -2.677245954e-14 -1.112002432e-14)
(0 -2.38190867e-14 -1.008935502e-14)
(0 -2.115489401e-14 -9.130093018e-15)
(0 -1.875632142e-14 -8.244445117e-15)
(0 -1.660015222e-14 -7.432547326e-15)
(0 -1.466392151e-14 -6.693007998e-15)
(0 -1.292618914e-14 -6.023355866e-15)
(0 -1.136670665e-14 -5.42040252e-15)
(0 -9.966502589e-15 -4.880530354e-15)
(0 -8.707906403e-15 -4.399917249e-15)
(0 -7.574526861e-15 -3.974708743e-15)
(0 -6.551197612e-15 -3.601147425e-15)
(0 -5.623899731e-15 -3.275668161e-15)
(0 -4.779668664e-15 -2.994966473e-15)
(0 -4.006491172e-15 -2.756046281e-15)
(0 -3.293196329e-15 -2.556252058e-15)
(0 -2.629343471e-15 -2.393289507e-15)
(0 -2.005109066e-15 -2.265237914e-15)
(0 -1.411173499e-15 -2.170556355e-15)
(0 -8.386108102e-16 -2.108084833e-15)
(0 -2.782890932e-16 -2.077041234e-15)
(0 -0.919619124 -1.27761879)
(0 -1.29039502 -1.675607644)
(0 -1.086070576 -1.579684907)
(0 -0.7160740239 -1.083614531)
(0 -0.2419465527 -0.3895362313)
(0 -0.01292166484 0.0410419214)
(0 -0.008109638198 0.05614430739)
(0 0.0001110696193 -0.01217536247)
(0 -6.742249188e-14 -7.255311794e-17)
(0 -1.339267857e-13 -5.474240114e-15)
(0 -1.315164531e-13 -1.067696203e-14)
(0 -1.279225874e-13 -1.543521774e-14)
(0 -1.231508233e-13 -1.958585017e-14)
(0 -1.174177922e-13 -2.302046307e-14)
(0 -1.109572385e-13 -2.568676945e-14)
(0 -1.040014818e-13 -2.758335535e-14)
(0 -9.67666487e-14 -2.87500855e-14)
(0 -8.944283978e-14 -2.92566112e-14)
(0 -8.218895836e-14 -2.919097834e-14)
(0 -7.513134848e-14 -2.864964615e-14)
(0 -6.836517925e-14 -2.772957013e-14)
(0 -6.195755717e-14 -2.652249771e-14)
(0 -5.595152428e-14 -2.511130123e-14)
(0 -5.037031916e-14 -2.356800472e-14)
(0 -4.522148544e-14 -2.195310695e-14)
(0 -4.050058416e-14 -2.031582058e-14)
(0 -3.61943932e-14 -1.869490178e-14)
(0 -3.22835639e-14 -1.711981264e-14)
(0 -2.874475867e-14 -1.561202632e-14)
(0 -2.555232272e-14 -1.418634324e-14)
(0 -2.26795558e-14 -1.285213452e-14)
(0 -2.009965139e-14 -1.161446451e-14)
(0 -1.77863672e-14 -1.047507037e-14)
(0 -1.571448298e-14 -9.433193872e-15)
(0 -1.386009363e-14 -8.486271787e-15)
(0 -1.220077713e-14 -7.630497448e-15)
(0 -1.07156691e-14 -6.861269147e-15)
(0 -9.385469266e-15 -6.173541845e-15)
(0 -8.192399413e-15 -5.562098147e-15)
(0 -7.120127853e-15 -5.021753193e-15)
(0 -6.153671614e-15 -4.547506431e-15)
(0 -5.279284749e-15 -4.13465143e-15)
(0 -4.484338757e-15 -3.778853156e-15)
(0 -3.757199367e-15 -3.476200486e-15)
(0 -3.087102564e-15 -3.223240297e-15)
(0 -2.464031662e-15 -3.016998214e-15)
(0 -1.878596426e-15 -2.854989953e-15)
(0 -1.321914495e-15 -2.735226311e-15)
(0 -7.854981777e-16 -2.656214202e-15)
(0 -2.606583611e-16 -2.616956398e-15)
(0 -0.5617782465 -0.9711711546)
(0 -1.11682305 -1.53459997)
(0 -1.149877788 -1.764401736)
(0 -0.9270154791 -1.503521874)
(0 -0.4615049981 -0.8195996451)
(0 -0.03486487359 -0.09752915371)
(0 -0.003979799501 0.06508351696)
(0 -0.0002690372085 -0.01596703339)
(0 -7.052120441e-14 -9.612418538e-17)
(0 -1.399938496e-13 -7.136713124e-15)
(0 -1.371743454e-13 -1.389165673e-14)
(0 -1.329657106e-13 -2.002219244e-14)
(0 -1.274240708e-13 -2.53102716e-14)
(0 -1.208320508e-13 -2.961906492e-14)
(0 -1.134863606e-13 -3.289258219e-14)
(0 -1.056727767e-13 -3.514541671e-14)
(0 -9.764787593e-14 -3.644675536e-14)
(0 -8.96284369e-14 -3.690269511e-14)
(0 -8.178745066e-14 -3.663977735e-14)
(0 -7.425502644e-14 -3.579137731e-14)
(0 -6.712242337e-14 -3.448754257e-14)
(0 -6.044770882e-14 -3.284817559e-14)
(0 -5.426193375e-14 -3.09790741e-14)
(0 -4.857509624e-14 -2.897019678e-14)
(0 -4.338147838e-14 -2.689552451e-14)
(0 -3.866417027e-14 -2.481396907e-14)
(0 -3.439874614e-14 -2.277089303e-14)
(0 -3.055614687e-14 -2.079991784e-14)
(0 -2.7104868e-14 -1.892479665e-14)
(0 -2.401256774e-14 -1.716120853e-14)
(0 -2.124720797e-14 -1.551839111e-14)
(0 -1.877782986e-14 -1.400057175e-14)
(0 -1.657505079e-14 -1.260818612e-14)
(0 -1.461135364e-14 -1.133889131e-14)
(0 -1.286122508e-14 -1.018839087e-14)
(0 -1.13011865e-14 -9.151094255e-15)
(0 -9.909751051e-15 -8.220634662e-15)
(0 -8.667331589e-15 -7.390268575e-15)
(0 -7.556117751e-15 -6.653178366e-15)
(0 -6.559935145e-15 -6.002696951e-15)
(0 -5.664095849e-15 -5.43247077e-15)
(0 -4.855246457e-15 -4.936574788e-15)
(0 -4.12121772e-15 -4.509590865e-15)
(0 -3.450878313e-15 -4.146658714e-15)
(0 -2.833994057e-15 -3.843506863e-15)
(0 -2.261093127e-15 -3.596469491e-15)
(0 -1.723337163e-15 -3.402493743e-15)
(0 -1.212397748e-15 -3.259141084e-15)
(0 -7.203408968e-16 -3.164585531e-15)
(0 -2.390312893e-16 -3.117611192e-15)
(0 -0.2062788017 -0.6058445366)
(0 -0.8109268965 -1.207121345)
(0 -1.067748459 -1.732725925)
(0 -1.040375966 -1.795576614)
(0 -0.6784134305 -1.275957314)
(0 -0.1981926204 -0.4264404221)
(0 0.004921886064 0.04244483819)
(0 -0.0008395226511 -0.02299584387)
(0 -7.451856694e-14 -1.503586099e-16)
(0 -1.477953121e-13 -9.137206088e-15)
(0 -1.444019324e-13 -1.773057662e-14)
(0 -1.393412022e-13 -2.545121829e-14)
(0 -1.327476958e-13 -3.201357489e-14)
(0 -1.250001027e-13 -3.725258993e-14)
(0 -1.164835903e-13 -4.111880461e-14)
(0 -1.07555655e-13 -4.36587892e-14)
(0 -9.85239271e-14 -4.498872166e-14)
(0 -8.963586176e-14 -4.526760212e-14)
(0 -8.107764056e-14 -4.467407504e-14)
(0 -7.297911371e-14 -4.338859372e-14)
(0 -6.542197753e-14 -4.158111763e-14)
(0 -5.844908869e-14 -3.940366706e-14)
(0 -5.207354547e-14 -3.698670261e-14)
(0 -4.628676957e-14 -3.443825909e-14)
(0 -4.106525773e-14 -3.184489297e-14)
(0 -3.637595268e-14 -2.927369686e-14)
(0 -3.218034197e-14 -2.677483278e-14)
(0 -2.843746752e-14 -2.438420941e-14)
(0 -2.510604936e-14 -2.212606614e-14)
(0 -2.214591718e-14 -2.001532819e-14)
(0 -1.951891901e-14 -1.805966862e-14)
(0 -1.71894464e-14 -1.626125916e-14)
(0 -1.512468677e-14 -1.461822083e-14)
(0 -1.329468773e-14 -1.312580088e-14)
(0 -1.167229657e-14 -1.177731005e-14)
(0 -1.023302092e-14 -1.056485595e-14)
(0 -8.954843424e-15 -9.479907071e-15)
(0 -7.818012969e-15 -8.513718705e-15)
(0 -6.804827789e-15 -7.657648251e-15)
(0 -5.899420257e-15 -6.90338336e-15)
(0 -5.087549451e-15 -6.2431024e-15)
(0 -4.356404845e-15 -5.669583318e-15)
(0 -3.694422684e-15 -5.176273874e-15)
(0 -3.091115365e-15 -4.757333626e-15)
(0 -2.536913341e-15 -4.407655888e-15)
(0 -2.023018542e-15 -4.122876067e-15)
(0 -1.541268018e-15 -3.899371364e-15)
(0 -1.084006283e-15 -3.734255666e-15)
(0 -6.439682865e-16 -3.625372549e-15)
(0 -2.136840222e-16 -3.571288618e-15)
(0 0.05901631315 -0.2611852412)
(0 -0.4465413159 -0.7744579585)
(0 -0.8613402985 -1.494137286)
(0 -1.038741346 -1.907061989)
(0 -0.8393831755 -1.679201336)
(0 -0.3753142824 -0.8430220648)
(0 0.003248357646 -0.02900860896)
(0 -0.0007766572722 -0.02990992728)
(0 -7.961771679e-14 -2.254301686e-16)
(0 -1.576846048e-13 -1.161921385e-14)
(0 -1.534883576e-13 -2.244181178e-14)
(0 -1.472487089e-13 -3.203792751e-14)
(0 -1.392254424e-13 -4.003964207e-14)
(0 -1.299372806e-13 -4.625843519e-14)
(0 -1.198925599e-13 -5.067090892e-14)
(0 -1.095426938e-13 -5.338199939e-14)
(0 -9.925668886e-14 -5.458164138e-14)
(0 -8.931379028e-14 -5.45049073e-14)
(0 -7.990844227e-14 -5.340037915e-14)
(0 -7.116206904e-14 -5.150789439e-14)
(0 -6.31374967e-14 -4.904477483e-14)
(0 -5.58532938e-14 -4.619878445e-14)
(0 -4.929652578e-14 -4.312591755e-14)
(0 -4.343328659e-14 -3.99513413e-14)
(0 -3.821691615e-14 -3.677217608e-14)
(0 -3.359411008e-14 -3.366116392e-14)
(0 -2.950925869e-14 -3.067059018e-14)
(0 -2.590738024e-14 -2.783606751e-14)
(0 -2.273598678e-14 -2.517996661e-14)
(0 -1.994617022e-14 -2.271439704e-14)
(0 -1.749313894e-14 -2.044371634e-14)
(0 -1.533638208e-14 -1.836658988e-14)
(0 -1.343959251e-14 -1.647764692e-14)
(0 -1.177044285e-14 -1.476878742e-14)
(0 -1.030028015e-14 -1.323019576e-14)
(0 -9.003783528e-15 -1.185111356e-14)
(0 -7.858613808e-15 -1.062041854e-14)
(0 -6.845072769e-15 -9.527049347e-15)
(0 -5.945782407e-15 -8.560310198e-15)
(0 -5.145389294e-15 -7.710082919e-15)
(0 -4.430295807e-15 -6.96696888e-15)
(0 -3.78841793e-15 -6.322378727e-15)
(0 -3.208968028e-15 -5.768584089e-15)
(0 -2.682260328e-15 -5.298742385e-15)
(0 -2.199536498e-15 -4.90690335e-15)
(0 -1.752808602e-15 -4.588003894e-15)
(0 -1.334716762e-15 -4.337856376e-15)
(0 -9.38398933e-16 -4.153134088e-15)
(0 -5.573738486e-16 -4.031356816e-15)
(0 -1.849473584e-16 -3.97087853e-15)
(0 0.1616326477 -0.06120319829)
(0 -0.1151494269 -0.351803984)
(0 -0.5757191376 -1.103255088)
(0 -0.9293381162 -1.818308629)
(0 -0.925828785 -1.965805225)
(0 -0.538299072 -1.300039382)
(0 -0.02776433936 -0.2467238178)
(0 0.0007963866482 -0.03182967137)
(0 -8.60917364e-14 -3.661220258e-16)
(0 -1.701719241e-13 -1.480444574e-14)
(0 -1.648206461e-13 -2.837864086e-14)
(0 -1.569390325e-13 -4.021814165e-14)
(0 -1.469682035e-13 -4.984780561e-14)
(0 -1.356313696e-13 -5.706995815e-14)
(0 -1.236071545e-13 -6.192397111e-14)
(0 -1.114663874e-13 -6.461643183e-14)
(0 -9.964683501e-14 -6.545086906e-14)
(0 -8.845459953e-14 -6.477004977e-14)
(0 -7.808062765e-14 -6.291475206e-14)
(0 -6.862350938e-14 -6.019797735e-14)
(0 -6.011286759e-14 -5.689146149e-14)
(0 -5.253023141e-14 -5.322093236e-14)
(0 -4.582610233e-14 -4.936698199e-14)
(0 -3.993302811e-14 -4.546913434e-14)
(0 -3.477508035e-14 -4.163140841e-14)
(0 -3.027436678e-14 -3.792827593e-14)
(0 -2.635524556e-14 -3.441036275e-14)
(0 -2.294684395e-14 -3.110955516e-14)
(0 -1.998437889e-14 -2.804337454e-14)
(0 -1.740966691e-14 -2.521860552e-14)
(0 -1.517111185e-14 -2.263423001e-14)
(0 -1.322337698e-14 -2.028375079e-14)
(0 -1.152688431e-14 -1.815699815e-14)
(0 -1.004723657e-14 -1.624151088e-14)
(0 -8.754622705e-15 -1.452357385e-14)
(0 -7.623243702e-15 -1.298898372e-14)
(0 -6.630779214e-15 -1.162360238e-14)
(0 -5.757904631e-15 -1.04137471e-14)
(0 -4.987861361e-15 -9.346456716e-15)
(0 -4.306078939e-15 -8.409665227e-15)
(0 -3.699845259e-15 -7.592307206e-15)
(0 -3.158020053e-15 -6.884374227e-15)
(0 -2.670786342e-15 -6.276936938e-15)
(0 -2.229434627e-15 -5.762144068e-15)
(0 -1.826174849e-15 -5.333206878e-15)
(0 -1.453971568e-15 -4.984375497e-15)
(0 -1.106398212e-15 -4.710911936e-15)
(0 -7.775067236e-16 -4.509063328e-15)
(0 -4.617127281e-16 -4.376037973e-15)
(0 -1.532057359e-16 -4.309986028e-15)
(0 0.1580846241 0.001697161331)
(0 0.09959349311 -0.06401947024)
(0 -0.2689542121 -0.6515231192)
(0 -0.7351119316 -1.546227829)
(0 -0.9312024621 -2.087905947)
(0 -0.6785429681 -1.734232288)
(0 -0.1172665979 -0.6195081383)
(0 0.003808685351 -0.03831241471)
(0 -9.425209041e-14 -9.673384487e-16)
(0 -1.85917114e-13 -1.90212867e-14)
(0 -1.789020535e-13 -3.604864676e-14)
(0 -1.687178736e-13 -5.060680707e-14)
(0 -1.560772589e-13 -6.206229612e-14)
(0 -1.420134461e-13 -7.024878434e-14)
(0 -1.274390336e-13 -7.533810007e-14)
(0 -1.130695917e-13 -7.770869066e-14)
(0 -9.941030679e-14 -7.783536236e-14)
(0 -8.677767329e-14 -7.620980884e-14)
(0 -7.533636985e-14 -7.32908078e-14)
(0 -6.513877847e-14 -6.947803117e-14)
(0 -5.616045171e-14 -6.510238687e-14)
(0 -4.83288143e-14 -6.042670673e-14)
(0 -4.154472775e-14 -5.565212117e-14)
(0 -3.569771301e-14 -5.092695334e-14)
(0 -3.067605775e-14 -4.635616649e-14)
(0 -2.637306442e-14 -4.201026232e-14)
(0 -2.269053792e-14 -3.793310153e-14)
(0 -1.954039203e-14 -3.414846952e-14)
(0 -1.684503714e-14 -3.066540987e-14)
(0 -1.453702569e-14 -2.748244786e-14)
(0 -1.255828421e-14 -2.459086575e-14)
(0 -1.085915022e-14 -2.197719654e-14)
(0 -9.397352601e-15 -1.962509028e-14)
(0 -8.137018548e-15 -1.751668653e-14)
(0 -7.047752983e-15 -1.56336047e-14)
(0 -6.103812059e-15 -1.395764279e-14)
(0 -5.283377189e-15 -1.247125655e-14)
(0 -4.567927105e-15 -1.115787546e-14)
(0 -3.941700537e-15 -1.000209933e-14)
(0 -3.391239784e-15 -8.989808771e-15)
(0 -2.905004807e-15 -8.108215083e-15)
(0 -2.473047662e-15 -7.345868631e-15)
(0 -2.086737869e-15 -6.69264004e-15)
(0 -1.738530267e-15 -6.139684857e-15)
(0 -1.421767926e-15 -5.679399513e-15)
(0 -1.13051366e-15 -5.305374325e-15)
(0 -8.594045931e-16 -5.012347706e-15)
(0 -6.035249693e-16 -4.796164569e-15)
(0 -3.582965482e-16 -4.653741039e-15)
(0 -1.188954133e-16 -4.583036928e-15)
(0 0.1636828559 0.01018903936)
(0 0.1739358153 0.04352967722)
(0 -0.001322573717 -0.2456152653)
(0 -0.4866102486 -1.13831298)
(0 -0.8589549259 -2.021748757)
(0 -0.7969039685 -2.083176929)
(0 -0.2719930662 -1.079966289)
(0 0.006845997454 -0.08198102082)
(0 -1.043027893e-13 -1.012977193e-15)
(0 -2.055887807e-13 -2.449477167e-14)
(0 -1.964061664e-13 -4.618454942e-14)
(0 -1.829526819e-13 -6.409580829e-14)
(0 -1.666101807e-13 -7.754409671e-14)
(0 -1.489071735e-13 -8.652374887e-14)
(0 -1.310670608e-13 -9.147047088e-14)
(0 -1.139636497e-13 -9.304478246e-14)
(0 -9.814795319e-14 -9.197224421e-14)
(0 -8.391004498e-14 -8.894331007e-14)
(0 -7.134884997e-14 -8.456098233e-14)
(0 -6.043508846e-14 -7.932129265e-14)
(0 -5.106154316e-14 -7.361365639e-14)
(0 -4.307996571e-14 -6.773165046e-14)
(0 -3.632634894e-14 -6.188805934e-14)
(0 -3.063707343e-14 -5.623056366e-14)
(0 -2.585838933e-14 -5.085617508e-14)
(0 -2.185130182e-14 -4.58236057e-14)
(0 -1.849345275e-14 -4.116338521e-14)
(0 -1.567915229e-14 -3.688586407e-14)
(0 -1.331835723e-14 -3.298738374e-14)
(0 -1.133512278e-14 -2.9454934e-14)
(0 -9.665860535e-15 -2.626960293e-14)
(0 -8.257601518e-15 -2.340908685e-14)
(0 -7.066374295e-15 -2.084948244e-14)
(0 -6.055750986e-15 -1.85665393e-14)
(0 -5.195578971e-15 -1.653651228e-14)
(0 -4.460895551e-15 -1.473672128e-14)
(0 -3.83101188e-15 -1.314589965e-14)
(0 -3.288747412e-15 -1.17443924e-14)
(0 -2.819794671e-15 -1.051424966e-14)
(0 -2.412194693e-15 -9.439248688e-15)
(0 -2.05590512e-15 -8.504869064e-15)
(0 -1.742445009e-15 -7.698238689e-15)
(0 -1.464602567e-15 -7.008063465e-15)
(0 -1.2161941e-15 -6.424549771e-15)
(0 -9.918643175e-16 -5.939326182e-15)
(0 -7.869197607e-16 -5.545368979e-15)
(0 -5.971884561e-16 -5.236934562e-15)
(0 -4.189000566e-16 -5.009500906e-15)
(0 -2.485850872e-16 -4.859719483e-15)
(0 -8.250162496e-17 -4.785378576e-15)
(0 0.1894485004 0.009591281209)
(0 0.1896097166 0.06119041528)
(0 0.1721329926 0.02181035866)
(0 -0.2155444367 -0.6649545061)
(0 -0.71078559 -1.765166897)
(0 -0.8917226558 -2.296010276)
(0 -0.4843976879 -1.575480284)
(0 0.007681076118 -0.2101769411)
(0 -1.179303346e-13 -1.190149281e-15)
(0 -2.317140828e-13 -3.22034465e-14)
(0 -2.185030902e-13 -6.009470737e-14)
(0 -2.000774209e-13 -8.204438782e-14)
(0 -1.785051995e-13 -9.749232574e-14)
(0 -1.559398202e-13 -1.06830517e-13)
(0 -1.339600672e-13 -1.109749242e-13)
(0 -1.135713651e-13 -1.110278973e-13)
(0 -9.530883441e-14 -1.080659575e-13)
(0 -7.936641141e-14 -1.030307387e-13)
(0 -6.571435242e-14 -9.668905126e-14)
(0 -5.419145252e-14 -8.963297956e-14)
(0 -4.457080952e-14 -8.22996994e-14)
(0 -3.660321726e-14 -7.499850484e-14)
(0 -3.004364095e-14 -6.793815542e-14)
(0 -2.466582874e-14 -6.125125838e-14)
(0 -2.026909978e-14 -5.501450535e-14)
(0 -1.668027455e-14 -4.926470105e-14)
(0 -1.375279629e-14 -4.401103955e-14)
(0 -1.136439055e-14 -3.924426451e-14)
(0 -9.414107073e-15 -3.494335643e-14)
(0 -7.81924489e-15 -3.108031835e-14)
(0 -6.512437054e-15 -2.762353305e-14)
(0 -5.43902973e-15 -2.454006711e-14)
(0 -4.554805051e-15 -2.179721072e-14)
(0 -3.824048384e-15 -1.936347051e-14)
(0 -3.21793497e-15 -1.720917667e-14)
(0 -2.713199429e-15 -1.530682225e-14)
(0 -2.291048307e-15 -1.363121974e-14)
(0 -1.936277114e-15 -1.21595361e-14)
(0 -1.636556823e-15 -1.08712496e-14)
(0 -1.38185919e-15 -9.748058912e-15)
(0 -1.163994808e-15 -8.773765802e-15)
(0 -9.762420622e-16 -7.934145984e-15)
(0 -8.130489509e-16 -7.21681814e-15)
(0 -6.697929846e-16 -6.611117729e-15)
(0 -5.425871347e-16 -6.107979951e-15)
(0 -4.281220401e-16 -5.699834624e-15)
(0 -3.235365199e-16 -5.38051467e-15)
(0 -2.263098909e-16 -5.145179205e-15)
(0 -1.341742181e-16 -4.990251733e-15)
(0 -4.455450569e-17 -4.913373732e-15)
(0 0.2250611563 0.01575516269)
(0 0.2095773426 0.0579601646)
(0 0.2361676177 0.1234606778)
(0 0.04105979129 -0.2167144709)
(0 -0.4804147571 -1.337117593)
(0 -0.940803865 -2.325539324)
(0 -0.7300615282 -2.056568763)
(0 0.003362420737 -0.4730538794)
(0 -1.358503166e-13 -3.364260489e-15)
(0 -2.657547805e-13 -4.402558435e-14)
(0 -2.462471077e-13 -7.994119889e-14)
(0 -2.203503003e-13 -1.064899558e-13)
(0 -1.9139631e-13 -1.235476784e-13)
(0 -1.62389772e-13 -1.323301324e-13)
(0 -1.352644411e-13 -1.345709361e-13)
(0 -1.11054683e-13 -1.320265961e-13)
(0 -9.015079455e-14 -1.262338219e-13)
(0 -7.253313871e-14 -1.184255083e-13)
(0 -5.795109086e-14 -1.095322785e-13)
(0 -4.604573661e-14 -1.002225142e-13)
(0 -3.642706843e-14 -9.095415952e-14)
(0 -2.871842173e-14 -8.202489491e-14)
(0 -2.257910248e-14 -7.361507878e-14)
(0 -1.771342336e-14 -6.582200857e-14)
(0 -1.3871832e-14 -5.868602495e-14)
(0 -1.084783602e-14 -5.220974582e-14)
(0 -8.473016207e-15 -4.637186618e-14)
(0 -6.611469172e-15 -4.113683276e-14)
(0 -5.15441108e-15 -3.646147712e-14)
(0 -4.015299395e-15 -3.229945639e-14)
(0 -3.125609289e-15 -2.860414253e-14)
(0 -2.431279198e-15 -2.533043159e-14)
(0 -1.889777696e-15 -2.243581357e-14)
(0 -1.467716933e-15 -1.988094439e-14)
(0 -1.138930711e-15 -1.76298899e-14)
(0 -8.82938619e-16 -1.565015939e-14)
(0 -6.837257302e-16 -1.391260925e-14)
(0 -5.287772731e-16 -1.239127141e-14)
(0 -4.083174832e-16 -1.106314306e-14)
(0 -3.147108958e-16 -9.907961541e-15)
(0 -2.419921919e-16 -8.907979883e-15)
(0 -1.854973471e-16 -8.047752572e-15)
(0 -1.415743121e-16 -7.313937231e-15)
(0 -1.073559107e-16 -6.695115428e-15)
(0 -8.058121195e-17 -6.181634099e-15)
(0 -5.945447986e-17 -5.765468105e-15)
(0 -4.253303734e-17 -5.44010381e-15)
(0 -2.863711969e-17 -5.200443259e-15)
(0 -1.677961451e-17 -5.042728419e-15)
(0 -5.623623587e-18 -4.964484924e-15)
(0 0.2668015382 0.02212351871)
(0 0.254334793 0.06323551445)
(0 0.2640228126 0.140902447)
(0 0.2311997495 0.1105300852)
(0 -0.1667144022 -0.7836299396)
(0 -0.8969233882 -2.126692556)
(0 -0.9635708707 -2.463266983)
(0 -0.008688227366 -0.9124954247)
(0 -1.600179602e-13 -7.372287719e-15)
(0 -3.107310602e-13 -6.267683814e-14)
(0 -2.809674616e-13 -1.091452595e-13)
(0 -2.436839004e-13 -1.404198608e-13)
(0 -2.043453761e-13 -1.578756997e-13)
(0 -1.669630779e-13 -1.643712735e-13)
(0 -1.33656531e-13 -1.629531834e-13)
(0 -1.052342509e-13 -1.56275244e-13)
(0 -8.170774657e-14 -1.464187348e-13)
(0 -6.266486799e-14 -1.349065045e-13)
(0 -4.751135831e-14 -1.227930922e-13)
(0 -3.561333356e-14 -1.107714407e-13)
(0 -2.637319024e-14 -9.927011646e-14)
(0 -1.926413652e-14 -8.853225209e-14)
(0 -1.384075461e-14 -7.867554119e-14)
(0 -9.736774913e-15 -6.973586088e-14)
(0 -6.65683703e-15 -6.16979597e-14)
(0 -4.36611579e-15 -5.451646228e-14)
(0 -2.679883236e-15 -4.812988459e-14)
(0 -1.454001483e-15 -4.246973898e-14)
(0 -5.767307037e-16 -3.746626415e-14)
(0 3.808969866e-17 -3.305187978e-14)
(0 4.565877426e-16 -2.916313593e-14)
(0 7.292992271e-16 -2.574168716e-14)
(0 8.946821569e-16 -2.273465034e-14)
(0 9.818752892e-16 -2.009458616e-14)
(0 1.012850028e-15 -1.777926222e-14)
(0 1.00408122e-15 -1.575130009e-14)
(0 9.678396697e-16 -1.397777144e-14)
(0 9.131890719e-16 -1.242978335e-14)
(0 8.467530484e-16 -1.108207693e-14)
(0 7.733039898e-16 -9.912652609e-15)
(0 6.962141621e-16 -8.902428911e-15)
(0 6.178005902e-16 -8.034937376e-15)
(0 5.395881932e-16 -7.296053764e-15)
(0 4.625101478e-16 -6.673764317e-15)
(0 3.870601881e-16 -6.157965156e-15)
(0 3.134082488e-16 -5.740292611e-15)
(0 2.414883261e-16 -5.413982305e-15)
(0 1.710654994e-16 -5.173754983e-15)
(0 1.017841166e-16 -5.01572733e-15)
(0 3.368898938e-17 -4.937346357e-15)
(0 0.3124574229 0.02477848041)
(0 0.3084846846 0.07300962646)
(0 0.3000881165 0.1295135946)
(0 0.3259461196 0.241133327)
(0 0.1892932068 -0.2024182739)
(0 -0.7049632403 -1.666596452)
(0 -1.123410054 -2.709561347)
(0 -0.02782894543 -1.543648848)
(0 -1.943282448e-13 -1.568688105e-14)
(0 -3.718785858e-13 -9.408399604e-14)
(0 -3.239901304e-13 -1.535287283e-13)
(0 -2.690807404e-13 -1.881610956e-13)
(0 -2.153477226e-13 -2.031630206e-13)
(0 -1.674672557e-13 -2.043280252e-13)
(0 -1.271684116e-13 -1.965981327e-13)
(0 -9.452023442e-14 -1.83705249e-13)
(0 -6.878205508e-14 -1.682617087e-13)
(0 -4.890749617e-14 -1.519904907e-13)
(0 -3.38160271e-14 -1.359634678e-13)
(0 -2.252276083e-14 -1.20800968e-13)
(0 -1.418787979e-14 -1.068232414e-13)
(0 -8.12384646e-15 -9.415886538e-14)
(0 -3.78271127e-15 -8.281922898e-14)
(0 -7.358418647e-16 -7.274808483e-14)
(0 1.347566603e-15 -6.385357125e-14)
(0 2.720239089e-15 -5.602829395e-14)
(0 3.573707088e-15 -4.916147715e-14)
(0 4.052151267e-15 -4.314596334e-14)
(0 4.263448123e-15 -3.788193987e-14)
(0 4.287828827e-15 -3.32786369e-14)
(0 4.184583332e-15 -2.925480672e-14)
(0 3.997206392e-15 -2.573850331e-14)
(0 3.757323298e-15 -2.26664882e-14)
(0 3.487671187e-15 -1.99834632e-14)
(0 3.20435536e-15 -1.764125024e-14)
(0 2.918552163e-15 -1.559798691e-14)
(0 2.637791013e-15 -1.381737466e-14)
(0 2.366917234e-15 -1.226799708e-14)
(0 2.108813255e-15 -1.092271388e-14)
(0 1.864937123e-15 -9.758129759e-15)
(0 1.635723041e-15 -8.754133823e-15)
(0 1.4208778e-15 -7.893503473e-15)
(0 1.219598747e-15 -7.161566348e-15)
(0 1.030732697e-15 -6.545913985e-15)
(0 8.528904941e-16 -6.036161366e-15)
(0 6.845283712e-16 -5.623747215e-15)
(0 5.240045906e-16 -5.301770599e-15)
(0 3.696178558e-16 -5.064860148e-15)
(0 2.196290114e-16 -4.909072886e-15)
(0 7.275734891e-17 -4.831820346e-15)
(0 0.3629275342 0.02496533484)
(0 0.3622189852 0.07837591192)
(0 0.363281799 0.1246442095)
(0 0.3561309963 0.2351563238)
(0 0.4828523453 0.2262010712)
(0 -0.3387489575 -0.9681704885)
(0 -1.146180221 -2.687732978)
(0 -0.0480684512 -2.327823012)
(0 -2.44485525e-13 -3.908327099e-14)
(0 -4.556951008e-13 -1.510739351e-13)
(0 -3.750445612e-13 -2.227082187e-13)
(0 -2.933181927e-13 -2.555296584e-13)
(0 -2.205123057e-13 -2.622914743e-13)
(0 -1.6039819e-13 -2.531857004e-13)
(0 -1.130337548e-13 -2.354116604e-13)
(0 -7.689782689e-14 -2.136903545e-13)
(0 -4.999298824e-14 -1.909356164e-13)
(0 -3.036662707e-14 -1.688325414e-13)
(0 -1.632183565e-14 -1.482708225e-13)
(0 -6.473107181e-15 -1.296466822e-13)
(0 2.689123964e-16 -1.130636028e-13)
(0 4.739875895e-15 -9.846107799e-14)
(0 7.570025939e-15 -8.569460299e-14)
(0 9.22888281e-15 -7.458375603e-14)
(0 1.006295385e-14 -6.493996343e-14)
(0 1.032597831e-14 -5.658164691e-14)
(0 1.020244737e-14 -4.934172982e-14)
(0 9.825535795e-15 -4.307065191e-14)
(0 9.290595739e-15 -3.763684724e-14)
(0 8.665222857e-15 -3.292587445e-14)
(0 7.996721327e-15 -2.883890691e-14)
(0 7.317617743e-15 -2.529099121e-14)
(0 6.64972227e-15 -2.220930007e-14)
(0 6.007113245e-15 -1.953149635e-14)
(0 5.398326319e-15 -1.720426056e-14)
(0 4.827956803e-15 -1.518199796e-14)
(0 4.297829497e-15 -1.342572157e-14)
(0 3.807849854e-15 -1.190209745e-14)
(0 3.356620373e-15 -1.058263506e-14)
(0 2.941884046e-15 -9.443004014e-15)
(0 2.560840448e-15 -8.46246013e-15)
(0 2.210368065e-15 -7.623364756e-15)
(0 1.887177682e-15 -6.910783783e-15)
(0 1.58791513e-15 -6.312154516e-15)
(0 1.309226958e-15 -5.817010532e-15)
(0 1.047799016e-15 -5.416756361e-15)
(0 8.003753928e-16 -5.104485311e-15)
(0 5.637632121e-16 -4.874835075e-15)