/*--------------------------------*- C++ -*----------------------------------*\
  =========                 |
  \\      /  F ield         | OpenFOAM: The Open Source CFD Toolbox
   \\    /   O peration     | Website:  https://openfoam.org
    \\  /    A nd           | Version:  6
     \\/     M anipulation  |
\*---------------------------------------------------------------------------*/
FoamFile
{
    version     2.0;
    format      ascii;
    class       volScalarField;
    location    "0.15";
    object      ViscousDissipation;
}
// * * * * * * * * * * * * * * * * * * * * * * * * * * * * * * * * * * * * * //

dimensions      [1 -1 -3 0 0 0 0];

internalField   nonuniform List<scalar> 
2500
(
28.3538524
18.64079193
1.697706774
0.3206697658
0.0944139716
0.5511268768
0.6016976919
0.01883101829
0.01043197447
9.640266652e-24
1.055155139e-25
2.086127224e-25
3.366592437e-25
4.701058306e-25
5.94115743e-25
6.969832193e-25
7.712487125e-25
8.138502001e-25
8.255424073e-25
8.098947064e-25
7.721668298e-25
7.182852427e-25
6.540463482e-25
5.845869984e-25
5.14102985e-25
4.457641897e-25
3.817653678e-25
3.234561927e-25
2.71505912e-25
2.260715002e-25
1.869504226e-25
1.537086811e-25
1.257814508e-25
1.025476968e-25
8.338229499e-26
6.768996799e-26
5.492531482e-26
4.46027309e-26
3.629935584e-26
2.965350043e-26
2.436038179e-26
2.01664737e-26
1.686336598e-26
1.428171572e-26
1.228565069e-26
1.076784121e-26
9.64539862e-27
8.856865449e-27
8.361234914e-27
8.655835902e-27
5.464033627
10.97175786
4.785955465
0.9013210618
0.0826112739
0.1284254032
0.1599186793
0.07441528971
0.04122040801
9.839860629e-24
1.570915434e-25
2.592686481e-25
3.861224278e-25
5.176271663e-25
6.388550589e-25
7.381603566e-25
8.082623047e-25
8.463459676e-25
8.534281314e-25
8.333124356e-25
7.914391162e-25
7.338520631e-25
6.664053949e-25
5.942448422e-25
5.215399854e-25
4.514127569e-25
3.859993561e-25
3.265885335e-25
2.737916767e-25
2.277140513e-25
1.881089113e-25
1.545057207e-25
1.263102617e-25
1.028783682e-25
8.356703912e-26
6.77673894e-26
5.492379046e-26
4.454303277e-26
3.619665176e-26
2.951885924e-26
2.420189234e-26
1.999006802e-26
1.66734178e-26
1.408146677e-26
1.207749433e-26
1.055344898e-26
9.425542906e-27
8.630277845e-27
8.131750009e-27
1.2588605e-26
1.041406632
6.170972102
7.918916412
3.216542816
0.4151576413
0.01938175784
0.08868515142
0.07437084139
0.02089940072
1.02535372e-23
2.669847644e-25
3.67213803e-25
4.911434952e-25
6.180360839e-25
7.328870292e-25
8.242432475e-25
8.852366395e-25
9.135847937e-25
9.108501894e-25
8.81311666e-25
8.307658015e-25
7.654794951e-25
6.914070444e-25
6.136961119e-25
5.364492666e-25
4.626801089e-25
3.943977251e-25
3.327613312e-25
2.782608961e-25
2.308941722e-25
1.903231248e-25
1.56002182e-25
1.272770287e-25
1.034563758e-25
8.386091706e-26
6.785420558e-26
5.4859948e-26
4.436960344e-26
3.594343426e-26
2.920742557e-26
2.384784881e-26
1.960471692e-26
1.626496793e-26
1.365590729e-26
1.163921895e-26
1.010570098e-26
8.970776736e-27
8.170770898e-27
7.669335435e-27
2.021946384e-26
0.3854450347
1.320426099
7.333292559
7.478110925
2.303003227
0.2235098776
0.1081135187
0.02625332888
0.1346679455
1.090925628e-23
4.514280386e-25
5.474878606e-25
6.652429523e-25
7.831263003e-25
8.861766367e-25
9.633877806e-25
1.008642942e-24
1.020550576e-24
1.001540002e-24
9.566126523e-25
8.920811122e-25
8.145113222e-25
7.299652288e-25
6.435507526e-25
5.592316002e-25
4.798268364e-25
4.07129556e-25
3.420855285e-25
2.849886459e-25
2.356655482e-25
1.936345171e-25
1.582329154e-25
1.287133427e-25
1.043119573e-25
8.429383868e-26
6.798050364e-26
5.476426031e-26
4.41133512e-26
3.557101887e-26
2.875086266e-26
2.333019653e-26
1.904258968e-26
1.567036613e-26
1.30375424e-26
1.100347296e-26
9.457333097e-27
8.313483401e-27
7.507719876e-27
7.003045758e-27
3.108884942e-26
2.024005712
0.2019034679
3.515510819
8.908345195
6.807394715
1.072181508
0.01190821646
0.008793150351
0.2030983736
1.187030932e-23
7.395534293e-25
8.265467913e-25
9.319206787e-25
1.033119018e-24
1.115572904e-24
1.169194766e-24
1.189128774e-24
1.175339324e-24
1.131486522e-24
1.063533033e-24
9.784240393e-25
8.830397502e-25
7.834917419e-25
6.847449383e-25
5.904992712e-25
5.03250152e-25
4.244527717e-25
3.547311227e-25
2.940909254e-25
2.421120274e-25
1.981084896e-25
1.612532344e-25
1.306693649e-25
1.054929219e-25
8.491276755e-26
6.819314758e-26
5.468381076e-26
4.38216704e-26
3.512709256e-26
2.819708726e-26
2.269700967e-26
1.835185245e-26
1.49378175e-26
1.227457198e-26
1.021839993e-26
8.656333091e-27
7.501269264e-27
6.688040574e-27
6.178408327e-27
4.455384675e-26
3.958446295
3.155872344
0.3125704543
6.031333836
10.54231807
3.453895203
0.03004068361
0.01187841793
0.3495082256
1.322441135e-23
1.179756201e-24
1.248001923e-24
1.329309287e-24
1.400240837e-24
1.447413621e-24
1.462504171e-24
1.442683336e-24
1.389865385e-24
1.309325359e-24
1.208169116e-24
1.093990463e-24
9.738819351e-25
8.538318216e-25
7.384570694e-25
6.309850186e-25
5.333927229e-25
4.466264517e-25
3.708446235e-25
3.056478594e-25
2.50276623e-25
2.037689906e-25
1.650787938e-25
1.331586268e-25
1.070140114e-25
8.573528788e-26
6.851321143e-26
5.46432644e-26
4.352263552e-26
3.464282699e-26
2.758001026e-26
2.198457871e-26
1.757083451e-26
1.410737443e-26
1.14084791e-26
9.326636758e-27
7.746223165e-27
6.578296608e-27
5.75642929e-27
5.240845972e-27
5.980866801e-26
4.469869365
7.316547686
0.8754950921
1.923826128
9.968674932
7.710938511
0.6784902384
0.005857121149
0.7261836026
1.5103538e-23
1.851775986e-24
1.882825614e-24
1.918302434e-24
1.934838757e-24
1.921892348e-24
1.874370765e-24
1.792581406e-24
1.681085208e-24
1.547086259e-24
1.398843947e-24
1.244402251e-24
1.090747571e-24
9.433773761e-25
8.061937007e-25
6.816151654e-25
5.708100775e-25
4.739754678e-25
3.906117571e-25
3.197643573e-25
2.602196812e-25
2.106537147e-25
1.69737448e-25
1.362063155e-25
1.089015142e-25
8.679056536e-26
6.897338974e-26
5.467889542e-26
4.325585556e-26
3.416079775e-26
2.694477421e-26
2.124022776e-26
1.674868941e-26
1.322970613e-26
1.049117083e-26
8.381082577e-27
6.780679851e-27
5.598846429e-27
4.767667739e-27
4.245597027e-27
7.593419731e-26
3.985668612
8.854216077
4.889806859
0.01920445171
6.423785663
11.97965323
2.71445151
0.002871241476
1.226565535
1.772213236e-23
2.889269983e-24
2.847547077e-24
2.796528023e-24
2.715459338e-24
2.599927759e-24
2.45051097e-24
2.272123523e-24
2.072602329e-24
1.861080983e-24
1.646564225e-24
1.436918296e-24
1.238317793e-24
1.055080178e-24
8.897737569e-25
7.434838677e-25
6.161438742e-25
5.068664086e-25
4.142370365e-25
3.365531478e-25
2.720047825e-25
2.188022186e-25
1.752590116e-25
1.398402328e-25
1.111850964e-25
8.811181642e-26
6.961094468e-26
5.483190158e-26
4.306608e-26
3.372882861e-26
2.63417978e-26
2.051653072e-26
1.593976075e-26
1.236059538e-26
9.579588661e-27
7.439600728e-27
5.818290321e-27
4.622068297e-27
3.781338996e-27
3.252566064e-27
9.195152438e-26
1.003232133
6.022183082
9.016767628
2.09950593
2.113422025
13.37807465
6.668242908
0.1665185937
1.388808447
2.141871465e-23
4.519114793e-24
4.337024846e-24
4.122714117e-24
3.865576057e-24
3.573982878e-24
3.257950439e-24
2.928524032e-24
2.596826066e-24
2.273030902e-24
1.965563295e-24
1.680664118e-24
1.422318087e-24
1.192453977e-24
9.913040775e-25
8.178230442e-25
6.700948723e-25
5.456862043e-25
4.419279744e-25
3.56123547e-25
2.85690862e-25
2.282503339e-25
1.816711446e-25
1.440875639e-25
1.138950513e-25
8.973377835e-26
7.046523439e-26
5.514589556e-26
4.30006018e-26
3.339728253e-26
2.582394821e-26
1.986836834e-26
1.520053273e-26
1.155779385e-26
8.732479302e-27
6.561713028e-27
4.919174188e-27
3.708535968e-27
2.858350795e-27
2.322894782e-27
1.068795381e-25
0.0532320563
2.0824512
9.478681408
7.164331695
0.07023974858
10.31890965
11.37427205
1.088755473
2.048051835
2.664162943e-23
7.134465121e-24
6.687115616e-24
6.160203994e-24
5.581437518e-24
4.98492891e-24
4.394746823e-24
3.82824246e-24
3.297731892e-24
2.811393831e-24
2.373870388e-24
1.986826215e-24
1.649543656e-24
1.359535202e-24
1.113124281e-24
9.059515299e-25
7.333826602e-25
5.908126829e-25
4.738745579e-25
3.785675269e-25
3.013228224e-25
2.390237454e-25
1.889947677e-25
1.489713638e-25
1.170593603e-25
9.169003352e-26
7.157511454e-26
5.566427848e-26
4.310654769e-26
3.321624457e-26
2.544361037e-26
1.934988773e-26
1.458648873e-26
1.08777906e-26
8.00708399e-27
5.805220013e-27
4.141544694e-27
2.916762884e-27
2.057427398e-27
1.515455148e-27
1.197939059e-25
0.01939175731
0.2914924821
5.983740557
11.82669236
2.376886648
4.758289221
14.87649313
3.549868506
9.315711183
3.498142389e-23
1.156185962e-23
1.051189813e-23
9.356633202e-24
8.178179934e-24
7.047829439e-24
6.003783489e-24
5.063978776e-24
4.234169548e-24
3.512771704e-24
2.893798966e-24
2.368733922e-24
1.927787551e-24
1.560772528e-24
1.257704021e-24
1.0091941e-24
8.066870013e-25
6.425741552e-25
5.102222122e-25
4.039418664e-25
3.189196988e-25
2.511299387e-25
1.972383004e-25
1.545061255e-25
1.206999923e-25
9.400967879e-26
7.297576643e-26
5.642710875e-26
4.342772625e-26
3.323232018e-26
2.524942523e-26
1.901118006e-26
1.414873306e-26
1.037238408e-26
7.455667575e-27
5.222693705e-27
3.538172132e-27
2.29964455e-27
1.431540844e-27
8.832772677e-28
1.298841472e-25
0.04491651371
0.008443396095
2.158303239
12.44603777
8.786621815
0.5714774306
15.86693413
8.340314148
60.53115354
4.808361919e-23
1.944151632e-23
1.694231147e-23
1.447890284e-23
1.216275402e-23
1.008972719e-23
8.291379181e-24
6.763240343e-24
5.48342414e-24
4.423128553e-24
3.552162467e-24
2.841709258e-24
2.265603117e-24
1.800808606e-24
1.427474068e-24
1.128761495e-24
8.905668236e-25
7.011963691e-25
5.510376206e-25
4.322461637e-25
3.384602985e-25
2.645484833e-25
2.063907003e-25
1.606924156e-25
1.248284395e-25
9.671335295e-26
7.469498408e-26
5.746751992e-26
4.400110775e-26
3.348514245e-26
2.528280818e-26
1.889480371e-26
1.393051654e-26
1.008521015e-26
7.122049315e-27
4.85801174e-27
3.152921955e-27
1.9010015e-27
1.024459512e-27
4.701027892e-28
1.365053718e-25
0.06055104763
0.07686047166
0.3051190551
8.372228827
16.19386494
1.815262991
13.47983383
15.96723971
305.852973
6.896345417e-23
3.355760257e-23
2.79495374e-23
2.281480788e-23
1.834121445e-23
1.460171849e-23
1.155056465e-23
9.097684743e-24
7.144291378e-24
5.598306072e-24
4.379908255e-24
3.422514653e-24
2.671813702e-24
2.084112347e-24
1.624572797e-24
1.265584117e-24
9.853544312e-25
7.66736393e-25
5.962676315e-25
4.633970914e-25
3.598666678e-25
2.792199327e-25
2.164135273e-25
1.675107648e-25
1.294406596e-25
9.980879112e-26
7.674909284e-26
5.88078672e-26
4.485312394e-26
3.400378424e-26
2.557445041e-26
1.903236074e-26
1.396387864e-26
1.0048442e-26
7.038353535e-27
4.743151988e-27
3.017586677e-27
1.752441813e-27
8.676343547e-28
3.072871925e-28
1.392213332e-25
0.07778213679
0.1227971016
0.03461470194
3.084026195
19.4704036
10.84552859
7.98103411
25.85920183
1138.190561
1.059384189e-22
6.015040321e-23
4.728428541e-23
3.657394015e-23
2.798999372e-23
2.130917038e-23
1.618733721e-23
1.229114321e-23
9.338202342e-24
7.102985034e-24
5.410723806e-24
4.128183107e-24
3.154673423e-24
2.414422783e-24
1.850494638e-24
1.420096343e-24
1.091025565e-24
8.390049689e-25
6.456927314e-25
4.972000568e-25
3.829862406e-25
2.950339732e-25
2.272325154e-25
1.749152052e-25
1.345117651e-25
1.032862141e-25
7.913879157e-26
6.045588511e-26
4.599606386e-26
3.480334622e-26
2.614106969e-26
1.944138907e-26
1.42666635e-26
1.02799146e-26
7.222228067e-27
4.895491065e-27
3.149250933e-27
1.870779425e-27
9.776572233e-28
4.112846289e-28
1.37835754e-25
0.09664650361
0.118021723
0.1864155091
0.2536700036
14.77375119
25.50651846
2.627370281
35.10285212
3259.036764
1.766536089e-22
1.125393198e-22
8.197944184e-23
5.948712311e-23
4.308263018e-23
3.124936179e-23
2.274180768e-23
1.662144483e-23
1.220581197e-23
9.006843415e-24
6.678058294e-24
4.974003504e-24
3.720597366e-24
2.793982157e-24
2.105639507e-24
1.591976492e-24
1.207050806e-24
9.174817245e-25
6.988782238e-25
5.333204216e-25
4.075741479e-25
3.118178609e-25
2.387294228e-25
1.828270634e-25
1.399909678e-25
1.071140011e-25
8.184532429e-26
6.240123187e-26
4.742491712e-26
3.588205213e-26
2.698272391e-26
2.012286725e-26
1.484019249e-26
1.078094346e-26
7.674788742e-27
5.315855074e-27
3.548429712e-27
2.256241682e-27
1.354520044e-27
7.819410635e-28
1.324094117e-25
0.1087057377
0.1076697396
0.2086758296
0.1597852905
5.823556699
35.64759472
5.062620893
38.35338365
7413.432734
3.158384636e-22
2.175126972e-22
1.445614566e-22
9.755631519e-23
6.65169631e-23
4.582162207e-23
3.188591456e-23
2.240743242e-23
1.589532908e-23
1.137642586e-23
8.210025125e-24
5.970501894e-24
4.372435953e-24
3.222572611e-24
2.388783847e-24
1.779859541e-24
1.332240387e-24
1.001231187e-24
7.551281949e-25
5.712575347e-25
4.332778202e-25
3.29326612e-25
2.507352254e-25
1.911298294e-25
1.457974473e-25
1.112352124e-25
8.482747784e-26
6.461286313e-26
4.911506426e-26
3.721921454e-26
2.808101963e-26
2.105963745e-26
1.566787534e-26
1.153509909e-26
8.379533851e-27
5.987551703e-27
4.19819678e-27
2.891673687e-27
1.980875417e-27
1.401791744e-27
1.232612355e-25
0.1065346189
0.1105748285
0.1338956319
0.4005790831
0.6402198274
28.87784392
21.52248945
31.48152783
13694.01294
5.657869193e-22
4.249336298e-22
2.556937107e-22
1.596734503e-22
1.021816996e-22
6.673575995e-23
4.436740243e-23
2.996982687e-23
2.053870968e-23
1.426157881e-23
1.002195768e-23
7.11945561e-24
5.107378806e-24
3.696429455e-24
2.6965239e-24
1.981054734e-24
1.464601974e-24
1.088831288e-24
8.134492739e-25
6.103258622e-25
4.59626603e-25
3.472367629e-25
2.630259428e-25
1.996660755e-25
1.518179165e-25
1.155656001e-25
8.801994442e-26
6.703769936e-26
5.102121858e-26
3.877442611e-26
2.939852897e-26
2.221602409e-26
1.671500694e-26
1.250815886e-26
9.3024285e-27
6.876565663e-27
5.064470788e-27
3.742895631e-27
2.822446573e-27
2.236505491e-27
1.109526304e-25
0.09559063992
0.1102026969
0.08782267163
0.2926228454
0.1564595774
13.47883209
44.54611743
16.85466314
20928.57147
9.164505144e-22
8.137028198e-22
4.445096619e-22
2.570586207e-22
1.54501839e-22
9.574515372e-23
6.086700424e-23
3.955745969e-23
2.621420722e-23
1.767665988e-23
1.210707886e-23
8.409309825e-24
5.91473016e-24
4.207176725e-24
3.02277524e-24
2.191315469e-24
1.601237902e-24
1.17832924e-24
8.725326722e-25
6.496482056e-25
4.860294556e-25
3.651457021e-25
2.753224849e-25
2.082374423e-25
1.57906666e-25
1.199937292e-25
9.133355812e-26
6.960100823e-26
5.30779711e-26
4.04882712e-26
3.087966248e-26
2.353885672e-26
1.792992545e-26
1.364938401e-26
1.039328393e-26
7.933023926e-27
6.097550602e-27
4.760293116e-27
3.829658273e-27
3.236541914e-27
9.625535794e-26
0.08152202589
0.09483998962
0.08603899288
0.1444057714
0.566864549
3.271026888
61.09984096
3.675842796
26760.59984
1.459679403e-21
1.467299407e-21
7.391954897e-22
3.997505527e-22
2.271051676e-22
1.341091691e-22
8.176823778e-23
5.124450011e-23
3.289951224e-23
2.157904742e-23
1.442669174e-23
9.810758454e-24
6.773961893e-24
4.740999306e-24
3.358440983e-24
2.404720383e-24
1.738312894e-24
1.267241289e-24
9.307635025e-25
6.881660908e-25
5.117837516e-25
3.825784717e-25
2.872957892e-25
2.166085908e-25
1.638887525e-25
1.243837151e-25
9.465779534e-26
7.220880491e-26
5.520217326e-26
4.228473727e-26
3.245313262e-26
2.495999471e-26
1.924659895e-26
1.489416445e-26
1.158845414e-26
9.093936667e-27
7.234892843e-27
5.881623565e-27
4.940464563e-27
4.339992809e-27
8.010449668e-26
0.06600251601
0.07274462089
0.09175224577
0.08016108924
0.4358086928
0.6208052936
54.1265348
0.8737226835
28421.19516
3.027719848e-21
2.381854582e-21
1.145083263e-21
5.909474702e-22
3.211216026e-22
1.819841963e-22
1.069108875e-22
6.482501128e-23
4.042613549e-23
2.584964721e-23
1.690208894e-23
1.127355153e-23
7.653565103e-24
5.278308441e-24
3.691375474e-24
2.613728301e-24
1.871123377e-24
1.352612007e-24
9.862654142e-25
7.246716014e-25
5.360975609e-25
3.990034472e-25
2.985781294e-25
2.245156998e-25
1.695667213e-25
1.285808429e-25
9.78657153e-26
7.475237854e-26
5.729721272e-26
4.407533977e-26
3.403598797e-26
2.640030684e-26
2.058857209e-26
1.616794505e-26
1.28147493e-26
1.028710242e-26
8.405011499e-27
7.035912064e-27
6.084242077e-27
5.476473438e-27
6.353918136e-26
0.04904122213
0.05256469796
0.08046516408
0.06579956579
0.1949984856
0.9733401257
38.75334262
8.224488909
24819.00949
6.307414498e-21
3.427626691e-21
1.640759028e-21
8.265635995e-22
4.348054624e-22
2.381342802e-22
1.354281427e-22
7.97358311e-23
4.844686677e-23
3.028058832e-23
1.941060758e-23
1.272568478e-23
8.511249679e-24
5.794159403e-24
4.006763891e-24
2.809462497e-24
1.994293661e-24
1.431144525e-24
1.036985688e-24
7.578629763e-25
5.581264676e-25
4.138573662e-25
3.087807945e-25
2.316795635e-25
1.747308382e-25
1.32419989e-25
1.008212221e-25
7.711479757e-26
5.925901261e-26
4.576477305e-26
3.553901693e-26
2.777489413e-26
2.187405257e-26
1.739120729e-26
1.399433558e-26
1.143594363e-26
9.532263367e-27
8.148198677e-27
7.186509781e-27
6.571823873e-27
4.763486847e-26
0.03176546882
0.03610132737
0.05865044347
0.08493880403
0.0719159036
2.321934395
26.58325615
21.45193099
18250.62974
9.352080299e-21
4.506306217e-21
2.22078563e-21
1.104304064e-21
5.649011203e-22
2.999687194e-22
1.656677216e-22
9.501515843e-23
5.642297884e-23
3.457426588e-23
2.178804672e-23
1.407605283e-23
9.295987898e-24
6.259637307e-24
4.288006942e-24
2.982258609e-24
2.102110795e-24
1.499404814e-24
1.080820822e-24
7.86423116e-25
5.770239434e-25
4.265788307e-25
3.175173916e-25
2.37822657e-25
1.791722764e-25
1.357363467e-25
1.033881895e-25
7.917896169e-26
6.098334128e-26
4.725768965e-26
3.687313559e-26
2.899918074e-26
2.302177169e-26
1.848514816e-26
1.505026966e-26
1.24649265e-26
1.0542178e-26
9.1447997e-27
8.174140429e-27
7.553287609e-27
3.343169732e-26
0.01655373606
0.02235354243
0.03368365753
0.1029769444
0.03732797316
3.07827977
16.46218937
37.09832798
9899.207347
8.679075373e-21
5.89492885e-21
2.976102513e-21
1.434462627e-21
7.072545989e-22
3.633126602e-22
1.950825464e-22
1.092842074e-22
6.36350481e-23
3.835765539e-23
2.383958839e-23
1.522151642e-23
9.952267153e-24
6.644328818e-24
4.518135913e-24
3.122472147e-24
2.188987684e-24
1.554090452e-24
1.115775391e-24
8.091159103e-25
5.920017459e-25
4.366477914e-25
3.244309603e-25
2.426887869e-25
1.826981574e-25
1.383775409e-25
1.054406575e-25
8.083649899e-26
6.237379748e-26
4.846602332e-26
3.795621508e-26
2.99953604e-26
2.395713238e-26
1.937759134e-26
1.591222096e-26
1.330513288e-26
1.136691143e-26
9.958671139e-27
8.980658644e-27
8.354766677e-27
2.186400845e-26
0.005951750537
0.01271641192
0.0150305147
0.09945704497
0.1437988753
2.30930942
8.158994374
33.35511291
3082.853556
4.137507455e-21
1.089979769e-20
4.220066908e-21
1.835758001e-21
8.529543414e-22
4.212195915e-22
2.199952628e-22
1.207576025e-22
6.922948499e-23
4.121824148e-23
2.536161817e-23
1.605905844e-23
1.042663399e-23
6.919808564e-24
4.681674388e-24
3.221482615e-24
2.250013129e-24
1.592338112e-24
1.140138407e-24
8.248906399e-25
6.023941634e-25
4.436269475e-25
3.292220858e-25
2.460632805e-25
1.85146877e-25
1.402158704e-25
1.068730509e-25
8.199660553e-26
6.334967571e-26
4.931614198e-26
3.871969776e-26
3.069859835e-26
2.46180853e-26
2.000860424e-26
1.652188167e-26
1.389950555e-26
1.195036211e-26
1.053442586e-26
9.551186546e-27
8.92172041e-27
1.369617702e-26
0.0009180078787
0.008089700555
0.007923209041
0.08392944286
0.2286213567
1.888254315
6.099868847
35.10538389
710.3353868
0.0005247127127
9.420679706e-21
6.307026555e-21
2.286571281e-21
9.745342842e-22
4.610701523e-22
2.353052991e-22
1.273712573e-22
7.23376115e-23
4.277222982e-23
2.617636105e-23
1.650276185e-23
1.067599175e-23
7.063740748e-24
4.766703043e-24
3.272756079e-24
2.281512325e-24
1.612027524e-24
1.152653433e-24
8.329807419e-25
6.077178689e-25
4.471998597e-25
3.31674539e-25
2.477912582e-25
1.864018811e-25
1.41159241e-25
1.076092455e-25
8.259383709e-26
6.385285476e-26
4.975507399e-26
3.911432311e-26
3.106236999e-26
2.496016283e-26
2.033528949e-26
1.683756459e-26
1.420729202e-26
1.225249383e-26
1.083256427e-26
9.846607711e-27
9.215285729e-27
9.469584012e-27
0.0009179738555
0.008089706322
0.007923220273
0.08393030736
0.2286244461
1.888263129
6.099917558
35.10534491
710.3376328
0.0005247181418
9.42068268e-21
6.307033072e-21
2.286572994e-21
9.745348057e-22
4.610703353e-22
2.35305374e-22
1.273712935e-22
7.233763199e-23
4.277224288e-23
2.617637002e-23
1.65027683e-23
1.06759965e-23
7.063744311e-24
4.766705743e-24
3.272758142e-24
2.281513911e-24
1.612028749e-24
1.152654383e-24
8.329814805e-25
6.077184435e-25
4.472003063e-25
3.316748853e-25
2.477915253e-25
1.864020856e-25
1.411593957e-25
1.076093605e-25
8.259392033e-26
6.385291257e-26
4.975511141e-26
3.911434417e-26
3.106237795e-26
2.496016031e-26
2.033527862e-26
1.683754712e-26
1.420726936e-26
1.225246719e-26
1.083253464e-26
9.846575954e-27
9.215252268e-27
9.464790017e-27
0.00595170071
0.01271645517
0.01503068505
0.09945809651
0.1437994487
2.309316335
8.158999974
33.35524238
3082.844155
4.137524866e-21
1.089982901e-20
4.220077976e-21
1.83576169e-21
8.529556024e-22
4.212200593e-22
2.199954607e-22
1.20757701e-22
6.922954206e-23
4.121827852e-23
2.536164397e-23
1.605907714e-23
1.042664787e-23
6.919819012e-24
4.681682333e-24
3.221488703e-24
2.250017821e-24
1.592341745e-24
1.140141229e-24
8.248928372e-25
6.023958755e-25
4.436282804e-25
3.292231209e-25
2.460640804e-25
1.851474905e-25
1.402163354e-25
1.068733974e-25
8.199685717e-26
6.334985126e-26
4.931625647e-26
3.871976321e-26
3.069862445e-26
2.46180799e-26
2.000857372e-26
1.652183124e-26
1.389943951e-26
1.195028403e-26
1.053433874e-26
9.551092984e-27
8.921621731e-27
1.368185111e-26
0.01655379138
0.02235373355
0.03368422397
0.1029783413
0.03732892258
3.078308012
16.46225642
37.09874944
9899.242111
8.679143515e-21
5.894962984e-21
2.976115157e-21
1.434467034e-21
7.072561532e-22
3.633132529e-22
1.950828064e-22
1.092843429e-22
6.363513036e-23
3.835771079e-23
2.383962796e-23
1.522154561e-23
9.952289074e-24
6.644345468e-24
4.518148661e-24
3.122481968e-24
2.188995289e-24
1.554096365e-24
1.115780001e-24
8.091195118e-25
5.920045612e-25
4.366499902e-25
3.244326732e-25
2.42690115e-25
1.826991795e-25
1.383783188e-25
1.054412399e-25
8.083692456e-26
6.2374097e-26
4.846622141e-26
3.795633154e-26
2.999541122e-26
2.39571305e-26
1.937754734e-26
1.591214351e-26
1.330502912e-26
1.136678733e-26
9.958531764e-27
8.980508349e-27
8.354607832e-27
2.184031867e-26
0.03176572734
0.03610175056
0.05865142169
0.08494073669
0.0719207257
2.321965271
26.5833832
21.452166
18250.76713
9.352135934e-21
4.506338651e-21
2.220797774e-21
1.104308224e-21
5.649025606e-22
2.999692715e-22
1.656679754e-22
9.501530106e-23
5.642307208e-23
3.457433223e-23
2.17880959e-23
1.407609e-23
9.296016288e-24
6.259659137e-24
4.288023817e-24
2.982271713e-24
2.102121011e-24
1.499412804e-24
1.080827086e-24
7.864280341e-25
5.770278062e-25
4.265818616e-25
3.175197636e-25
2.378245049e-25
1.791737059e-25
1.35737441e-25
1.033890144e-25
7.917956981e-26
6.098377453e-26
4.725798173e-26
3.687331367e-26
2.899926681e-26
2.302178366e-26
1.848510068e-26
1.505017479e-26
1.246479424e-26
1.054201674e-26
9.144616593e-27
8.173941672e-27
7.553076831e-27
3.339892323e-26
0.04904167797
0.05256531652
0.08046630426
0.06580124328
0.1950053922
0.9733468416
38.75358908
8.224433032
24819.23474
6.307558437e-21
3.42766435e-21
1.640770416e-21
8.265668857e-22
4.348064763e-22
2.381346613e-22
1.354283352e-22
7.973595576e-23
4.844695823e-23
3.028065845e-23
1.941066203e-23
1.272572717e-23
8.511282716e-24
5.794185191e-24
4.006784065e-24
2.809478319e-24
1.994306103e-24
1.431154331e-24
1.03699343e-24
7.578690945e-25
5.581313026e-25
4.138611827e-25
3.087837991e-25
2.316819187e-25
1.747326721e-25
1.324214032e-25
1.008222975e-25
7.7115599e-26
5.925959211e-26
4.576517259e-26
3.553927051e-26
2.777502941e-26
2.187409213e-26
1.739116971e-26
1.399423621e-26
1.14357953e-26
9.5320769e-27
8.147983373e-27
7.186273763e-27
6.571572309e-27
4.759340018e-26
0.06600307204
0.0727453111
0.09175309595
0.08016263417
0.4358122579
0.6208177419
54.12696012
0.8736455599
28421.36668
3.027773372e-21
2.381899616e-21
1.145091087e-21
5.909489444e-22
3.21121934e-22
1.81984331e-22
1.069109908e-22
6.482510416e-23
4.04262169e-23
2.58497157e-23
1.690214492e-23
1.127359654e-23
7.653600967e-24
5.27833691e-24
3.691398051e-24
2.613746216e-24
1.871137608e-24
1.352623327e-24
9.862744269e-25
7.246787798e-25
5.361032761e-25
3.99007991e-25
2.985817324e-25
2.245185447e-25
1.695689539e-25
1.285825795e-25
9.786704922e-26
7.475338505e-26
5.729795262e-26
4.407586237e-26
3.40363334e-26
2.64005079e-26
2.058865573e-26
1.616793353e-26
1.281466114e-26
1.02869532e-26
8.404814481e-27
7.035678738e-27
6.083982582e-27
5.476194792e-27
6.348951815e-26
0.0815225828
0.09484060374
0.086039438
0.1444067526
0.5668612288
3.271093626
61.10008573
3.675974436
26760.58519
1.459682892e-21
1.46729303e-21
7.391931569e-22
3.997496201e-22
2.271048221e-22
1.34109083e-22
8.176826044e-23
5.124456134e-23
3.289958097e-23
2.15791112e-23
1.442674657e-23
9.810803927e-24
6.773998945e-24
4.741029241e-24
3.358465077e-24
2.404739749e-24
1.738328457e-24
1.267253799e-24
9.307735589e-25
6.881741729e-25
5.117902413e-25
3.825836741e-25
2.872999482e-25
2.166119023e-25
1.638913741e-25
1.24385774e-25
9.465939459e-26
7.221002799e-26
5.520308818e-26
4.228539953e-26
3.245358766e-26
2.496027989e-26
1.924674514e-26
1.489419728e-26
1.15883951e-26
9.09380397e-27
7.234702156e-27
5.881388594e-27
4.940197545e-27
4.33970293e-27
8.004724491e-26
0.09559116981
0.1102031799
0.08782294764
0.2926226948
0.1564567683
13.478916
44.54613664
16.8547029
20928.54724
9.164384666e-22
8.136863158e-22
4.445047396e-22
2.570569124e-22
1.545012267e-22
9.574496382e-23
6.086698174e-23
3.955749935e-23
2.621426497e-23
1.767671797e-23
1.210713089e-23
8.409354156e-24
5.914767044e-24
4.207207052e-24
3.02280003e-24
2.191335674e-24
1.601254345e-24
1.178342611e-24
8.725435362e-25
6.496570244e-25
4.860366044e-25
3.651514853e-25
2.753271503e-25
2.082411911e-25
1.579096624e-25
1.199961071e-25
9.133542699e-26
6.960245775e-26
5.307907479e-26
4.048908951e-26
3.088024523e-26
2.353924512e-26
1.793015372e-26
1.36494808e-26
1.039327343e-26
7.932926802e-27
6.097384824e-27
4.760074597e-27
3.829401407e-27
3.236258342e-27
9.619122819e-26
0.1065351814
0.1105752724
0.133895902
0.4005787364
0.6402282176
28.87789432
21.52245483
31.48154123
13694.01283
5.657695163e-22
4.249269752e-22
2.55690704e-22
1.596721012e-22
1.021811441e-22
6.673556996e-23
4.436737056e-23
2.99698572e-23
2.053875997e-23
1.426163147e-23
1.002200606e-23
7.11949769e-24
5.107414471e-24
3.696459285e-24
2.696548672e-24
1.98107522e-24
1.464618873e-24
1.088845202e-24
8.134607111e-25
6.103352473e-25
4.596342891e-25
3.472430424e-25
2.630310578e-25
1.996702259e-25
1.518212677e-25
1.155682887e-25
8.802208346e-26
6.703938224e-26
5.102252264e-26
3.877541542e-26
2.939925669e-26
2.221653449e-26
1.671533701e-26
1.250833978e-26
9.302486773e-27
6.876524177e-27
5.064349648e-27
3.742712886e-27
2.822218792e-27
2.236246999e-27
1.108824337e-25
0.108706435
0.1076703426
0.2086766463
0.159785235
5.823579752
35.64760688
5.062598724
38.35342218
7413.432612
3.158358653e-22
2.175097054e-22
1.445595396e-22
9.75553262e-23
6.651653517e-23
4.582147652e-23
3.188589486e-23
2.240746255e-23
1.589537515e-23
1.137647377e-23
8.210069477e-24
5.970540999e-24
4.372469626e-24
3.22260124e-24
2.388808007e-24
1.779879829e-24
1.332257364e-24
1.00124535e-24
7.551399812e-25
5.71267318e-25
4.332859198e-25
3.293332986e-25
2.507407276e-25
1.911343398e-25
1.458011276e-25
1.112381982e-25
8.482988278e-26
6.461478222e-26
4.911657692e-26
3.722038711e-26
2.808190759e-26
2.106028726e-26
1.566832611e-26
1.153538396e-26
8.379681216e-27
5.987586299e-27
4.198140606e-27
2.89154678e-27
1.980696473e-27
1.4015779e-27
1.231858782e-25
0.09664732777
0.1180227377
0.1864170047
0.2536713322
14.773783
25.50650108
2.627384212
35.10287526
3259.035794
1.766535432e-22
1.125372458e-22
8.19779494e-23
5.948637346e-23
4.308233066e-23
3.124927604e-23
2.274181051e-23
1.662147986e-23
1.220585585e-23
9.006887059e-24
6.678098425e-24
4.974039165e-24
3.720628503e-24
2.794009062e-24
2.105662589e-24
1.591996186e-24
1.207067533e-24
9.174958757e-25
6.988901526e-25
5.333304429e-25
4.075825388e-25
3.11824863e-25
2.387352454e-25
1.828318864e-25
1.399949454e-25
1.071172645e-25
8.184798528e-26
6.240338494e-26
4.742664213e-26
3.588341643e-26
2.698378425e-26
2.012367147e-26
1.484078108e-26
1.078135092e-26
7.675044836e-27
5.315985951e-27
3.548458906e-27
2.256190968e-27
1.354410118e-27
7.817918556e-28
1.323298897e-25
0.07778289342
0.1227985812
0.03461534969
3.084036537
19.47041503
10.84550201
7.981061889
25.85921269
1138.190224
1.059396453e-22
6.0148094e-23
4.728292448e-23
3.657339479e-23
2.798983026e-23
2.130915181e-23
1.618736623e-23
1.229118467e-23
9.338244571e-24
7.103024469e-24
5.410759525e-24
4.128215008e-24
3.15470166e-24
2.414447595e-24
1.850516297e-24
1.420115134e-24
1.091041777e-24
8.39018884e-25
6.457046189e-25
4.972101679e-25
3.829948054e-25
2.950411995e-25
2.272385886e-25
1.749202889e-25
1.345160025e-25
1.032897297e-25
7.914169267e-26
6.045826407e-26
4.599799957e-26
3.480490586e-26
2.614231034e-26
1.944235916e-26
1.426740421e-26
1.02804612e-26
7.222611085e-27
4.895737541e-27
3.149385472e-27
1.870825167e-27
9.776366141e-28
4.112201974e-28
1.37753145e-25
0.06055139752
0.07686142803
0.3051209053
8.372242699
16.19384325
1.815252057
13.47985898
15.96724087
305.8525613
6.895773578e-23
3.355357284e-23
2.794834578e-23
2.281454847e-23
1.834121064e-23
1.460176833e-23
1.155061716e-23
9.097730641e-24
7.14433095e-24
5.598340839e-24
4.379939305e-24
3.422542584e-24
2.67183882e-24
2.084134833e-24
1.624592797e-24
1.26560178e-24
9.85369921e-25
7.66749889e-25
5.9627932e-25
4.634071594e-25
3.598752967e-25
2.792272941e-25
2.164197801e-25
1.675160536e-25
1.294451143e-25
9.981252724e-26
7.675221183e-26
5.881045762e-26
4.485526252e-26
3.400553704e-26
2.557587405e-26
1.903350357e-26
1.396478195e-26
1.00491412e-26
7.038879397e-27
4.743531845e-27
3.017845633e-27
1.752603861e-27
8.677232858e-28
3.073277079e-28
1.391367879e-25
0.04491593526
0.008443604179
2.15830733
12.44603978
8.786603882
0.5714852867
15.86694647
8.340291231
60.53095056
4.807278492e-23
1.943991597e-23
1.694233182e-23
1.447911558e-23