/*--------------------------------*- C++ -*----------------------------------*\
  =========                 |
  \\      /  F ield         | OpenFOAM: The Open Source CFD Toolbox
   \\    /   O peration     | Website:  https://openfoam.org
    \\  /    A nd           | Version:  6
     \\/     M anipulation  |
\*---------------------------------------------------------------------------*/
FoamFile
{
    version     2.0;
    format      ascii;
    class       surfaceScalarField;
    location    "0.03";
    object      alphaPhi0.phase1;
}
// * * * * * * * * * * * * * * * * * * * * * * * * * * * * * * * * * * * * * //

dimensions      [0 3 -1 0 0 0 0];

internalField   nonuniform List<scalar> 
4900
(
-1.556839013e-45
-4.768500903e-47
-3.555011395e-42
-1.148044396e-43
-1.963962939e-38
-2.787137112e-40
-9.343187808e-36
-5.718341942e-37
-2.625832043e-33
-6.953418548e-34
-7.869947141e-32
-4.167173137e-32
3.415611131e-28
-3.416398125e-28
1.517772299e-30
-4.182427368e-24
-1.830777475e-21
-1.619135572e-25
-1.81529483e-21
-1.548264454e-23
-1.785007592e-21
-3.029092787e-23
-1.740943914e-21
-4.407197316e-23
-1.684545109e-21
-5.641142715e-23
-1.617564957e-21
-6.699698917e-23
-1.541955052e-21
-7.563090369e-23
-1.459750133e-21
-8.22300407e-23
-1.372963743e-21
-8.681558997e-23
-1.283501459e-21
-8.949551262e-23
-1.193095491e-21
-9.044316763e-23
-1.10326142e-21
-8.987517984e-23
-1.01527547e-21
-8.803089734e-23
-9.301692345e-22
-8.515494691e-23
-8.487380148e-22
-8.148361362e-23
-7.71558856e-22
-7.723514821e-23
-6.990146715e-22
-7.260367731e-23
-6.313214228e-22
-6.775614755e-23
-5.685559874e-22
-6.283163836e-23
-5.106830005e-22
-5.794238736e-23
-4.575795431e-22
-5.317594471e-23
-4.090570262e-22
-4.85979762e-23
-3.648799937e-22
-4.425534567e-23
-3.247818281e-22
-4.017921092e-23
-2.88477525e-22
-3.638795576e-23
-2.556738057e-22
-3.28898518e-23
-2.260768911e-22
-2.968539677e-23
-1.993982759e-22
-2.67693144e-23
-1.753588318e-22
-2.4132226e-23
-1.536915404e-22
-2.176201929e-23
-1.341431278e-22
-1.964494866e-23
-1.164748287e-22
-1.776650363e-23
-1.004624783e-22
-1.611208253e-23
-8.589608983e-23
-1.466750635e-23
-7.257904611e-23
-1.341940452e-23
-6.032700369e-23
-1.235550251e-23
-4.896657713e-23
-1.146484172e-23
-3.83338291e-23
-1.073797361e-23
-2.827250098e-23
-1.016721914e-23
-1.863163754e-23
-9.747274829e-24
-9.261222321e-24
-9.477201782e-24
-9.368238132e-24
-1.621722727e-44
-2.958375651e-46
-2.664008982e-42
-5.731175375e-43
-4.466978977e-39
-1.386226421e-39
-5.957980876e-35
-3.614927835e-36
-3.86898062e-31
-1.265485311e-32
-6.461227453e-31
-2.157857574e-29
3.256596037e-25
-3.260131829e-25
1.057833679e-30
-1.98231884e-21
-1.846120558e-21
-3.700293993e-25
-1.830100773e-21
-3.150979494e-23
-1.798786563e-21
-6.162057269e-23
-1.753281802e-21
-8.960011983e-23
-1.695129677e-21
-1.145945108e-22
-1.626198448e-21
-1.359666185e-22
-1.548554286e-21
-1.533208279e-22
-1.464336212e-21
-1.665011583e-22
-1.375644522e-21
-1.755675138e-22
-1.284450186e-21
-1.807571695e-22
-1.192528689e-21
-1.824389588e-22
-1.10141835e-21
-1.810666616e-22
-1.012400691e-21
-1.771364106e-22
-9.264989828e-22
-1.71151075e-22
-8.444905108e-22
-1.63592915e-22
-7.669282113e-22
-1.549045208e-22
-6.941678292e-22
-1.454772013e-22
-6.263974675e-22
-1.356455367e-22
-5.636671674e-22
-1.256866602e-22
-5.0591688e-22
-1.158228922e-22
-4.530018031e-22
-1.062265289e-22
-4.047145462e-22
-9.702581828e-23
-3.60803946e-22
-8.83113907e-23
-3.209906098e-22
-8.014262809e-23
-2.849794194e-22
-7.255363466e-23
-2.524693204e-22
-6.55586136e-23
-2.231607582e-22
-5.91565589e-23
-1.967611237e-22
-5.333524501e-23
-1.729885534e-22
-4.807454418e-23
-1.515743946e-22
-4.334913049e-23
-1.322646073e-22
-3.91306431e-23
-1.148203345e-22
-3.538938635e-23
-9.90178334e-23
-3.209564234e-23
-8.464792504e-23
-2.922066651e-23
-7.1515088e-23
-2.673742959e-23
-5.943629462e-23
-2.462116222e-23
-4.823966986e-23
-2.28497525e-23
-3.776304765e-23
-2.140404278e-23
-2.78525519e-23
-2.026806469e-23
-1.836162075e-23
-1.942920309e-23
-9.152266143e-24
-1.887795313e-23
-1.860499394e-23
-7.655963529e-44
-1.847906938e-45
-2.424464677e-41
-4.347686725e-42
-2.982867261e-38
-8.911897833e-39
-6.893175291e-35
-1.975238178e-35
-5.813436589e-31
-9.220326796e-32
-5.180919622e-29
-1.435491133e-28
1.549990607e-24
-1.876190167e-24
-1.572093168e-19
-1.229922388e-20
-1.877338593e-21
-5.584184062e-25
-1.860206599e-21
-4.864782124e-23
-1.826761856e-21
-9.507817254e-23
-1.778273019e-21
-1.381086834e-22
-1.716499814e-21
-1.763940218e-22
-1.643551881e-21
-2.089473415e-22
-1.561734917e-21
-2.351770025e-22
-1.473403752e-21
-2.54877884e-22
-1.380836018e-21
-2.681870824e-22
-1.28613424e-21
-2.755169676e-22
-1.191158868e-21
-2.774784364e-22
-1.097490608e-21
-2.748050047e-22
-1.006417762e-21
-2.68285201e-22
-9.18943032e-22
-2.587074829e-22
-8.358040702e-22
-2.46819153e-22
-7.575025624e-22
-2.332987594e-22
-6.843375488e-22
-2.18740249e-22
-6.164397018e-22
-2.036465619e-22
-5.538042606e-22
-1.884302579e-22
-4.963211582e-22
-1.734189568e-22
-4.438015463e-22
-1.5886373e-22
-3.960004165e-22
-1.449489803e-22
-3.526353551e-22
-1.318027375e-22
-3.134016887e-22
-1.195066389e-22
-2.779843947e-22
-1.081051333e-22
-2.460672061e-22
-9.761366435e-23
-2.173393452e-22
-8.802573304e-23
-1.915002977e-22
-7.931884721e-23
-1.682629992e-22
-7.145942621e-23
-1.4735576e-22
-6.440676708e-23
-1.285232032e-22
-5.811619364e-23
-1.115264479e-22
-5.254151234e-23
-9.614272343e-23
-4.763689337e-23
-8.216456517e-23
-4.335828457e-23
-6.939871084e-23
-3.96644532e-23
-5.766478976e-23
-3.651773726e-23
-4.679388082e-23
-3.388457459e-23
-3.662700688e-23
-3.173586294e-23
-2.701364299e-23
-3.004718134e-23
-1.781032408e-23
-2.879885374e-23
-8.879223963e-24
-2.797573231e-23
-2.756652909e-23
-3.12074436e-43
-3.964484179e-44
-1.764540968e-40
-1.010615526e-40
-1.981602546e-37
-2.2618117e-37
-3.943937377e-34
-6.246989568e-34
-7.425383341e-31
-2.619317488e-31
2.838746223e-28
-4.156710673e-28
3.68160305e-24
-5.557977867e-24
-1.902774833e-18
-3.518426084e-20
-1.925542878e-21
-7.68167371e-25
-1.906629096e-21
-6.75675401e-23
-1.86978566e-21
-1.319342335e-22
-1.816553436e-21
-1.913602887e-22
-1.749050183e-21
-2.439231394e-22
-1.669780518e-21
-2.88249262e-22
-1.58143648e-21
-3.235596263e-22
-1.486715006e-21
-3.496442074e-22
-1.388168948e-21
-3.667841743e-22
-1.288099365e-21
-3.756436843e-22
-1.188489367e-21
-3.771515695e-22
-1.090974736e-21
-3.723886663e-22
-9.968437707e-22
-3.624909756e-22
-9.070580861e-22
-3.48573631e-22
-8.22286639e-22
-3.316765843e-22
-7.429465606e-22
-3.12730201e-22
-6.692459197e-22
-2.92537483e-22
-6.012250322e-22
-2.717691156e-22
-5.387942122e-22
-2.509676537e-22
-4.817668516e-22
-2.305576328e-22
-4.298874355e-22
-2.108590251e-22
-3.828545813e-22
-1.921020953e-22
-3.403394785e-22
-1.744422963e-22
-3.020002605e-22
-1.579743163e-22
-2.674928936e-22
-1.427447672e-22
-2.364791629e-22
-1.287632699e-22
-2.086322921e-22
-1.160118829e-22
-1.836406738e-22
-1.044529422e-22
-1.612101175e-22
-9.403544746e-23
-1.410649563e-22
-8.470016912e-23
-1.229482935e-22
-7.638365914e-23
-1.066216093e-22
-6.902134449e-23
-9.186390906e-23
-6.254986908e-23
-7.847054602e-23
-5.690883093e-23
-6.625182756e-23
-5.204204217e-23
-5.503148199e-23
-4.789841875e-23
-4.46450474e-23
-4.443258785e-23
-3.493822717e-23
-4.160528118e-23
-2.576523985e-23
-3.938356172e-23
-1.698714637e-23
-3.774090984e-23
-8.469991932e-24
-3.665719135e-23
-3.611863845e-23
-6.575710287e-42
-1.00048492e-42
-7.771185474e-39
-2.322450348e-39
-4.539710788e-35
-4.785447265e-36
-3.711058882e-32
-5.972291759e-33
-4.692423589e-31
-8.005240173e-31
1.198853182e-27
-1.616105777e-27
8.911467685e-24
-1.446865383e-23
-1.344410708e-18
-8.719863953e-20
-1.9924956e-21
-1.028939321e-24
-1.970984452e-21
-8.908462072e-23
-1.929202131e-21
-1.737291626e-22
-1.869109438e-21
-2.514723374e-22
-1.793372419e-21
-3.196859884e-22
-1.705089833e-21
-3.765640635e-22
-1.607522461e-21
-4.211655368e-22
-1.503858282e-21
-4.533531808e-22
-1.397033088e-21
-4.736603416e-22
-1.289612638e-21
-4.831211999e-22
-1.183732128e-21
-4.83095141e-22
-1.081082606e-21
-4.751071383e-22
-9.82931612e-22
-4.607166915e-22
-8.901656793e-22
-4.414199336e-22
-8.033442607e-22
-4.185838872e-22
-7.227571878e-22
-3.934085312e-22
-6.484802587e-22
-3.669108931e-22
-5.804256881e-22
-3.399252346e-22
-5.183857877e-22
-3.131140063e-22
-4.620693927e-22
-2.869852141e-22
-4.111312815e-22
-2.619128807e-22
-3.651952549e-22
-2.381582431e-22
-3.238717313e-22
-2.158901311e-22
-2.867707597e-22
-1.952035979e-22
-2.53511307e-22
-1.76136333e-22
-2.237275882e-22
-1.586827051e-22
-1.970730972e-22
-1.428054906e-22
-1.732228838e-22
-1.28445466e-22
-1.518745228e-22
-1.155291034e-22
-1.327481243e-22
-1.039746351e-22
-1.155856629e-22
-9.369674665e-23
-1.001498327e-22
-8.461014311e-23
-8.62225907e-23
-7.663220412e-23
-7.36035025e-23
-6.968491746e-23
-6.210797785e-23
-6.369624984e-23
-5.156545524e-23
-5.860108741e-23
-4.181757646e-23
-5.434185306e-23
-3.271637545e-23
-5.08688855e-23
-2.412248756e-23
-4.814064539e-23
-1.590335922e-23
-4.612380103e-23
-7.931405573e-24
-4.479324842e-23
-4.413215504e-23
-1.397751218e-40
-2.00379743e-41
-2.000416859e-37
-4.932915286e-38
-5.32107295e-34
-1.114623966e-34
-1.526538219e-31
-5.698814458e-32
-1.297828175e-30
-3.067398277e-30
2.713815058e-27
-4.33437226e-27
1.782646161e-23
-3.229351799e-23
-3.155028352e-18
-1.800457498e-19
-2.080742352e-21
-1.251055816e-24
-2.055613185e-21
-1.142197209e-22
-2.006932203e-21
-2.22422755e-22
-1.937314082e-21
-3.211098177e-22
-1.850245799e-21
-4.067801062e-22
-1.749690618e-21
-4.771514651e-22
-1.63971276e-21
-5.311819395e-22
-1.524170596e-21
-5.689401466e-22
-1.406500722e-21
-5.91381197e-22
-1.289594182e-21
-6.000848146e-22
-1.175751901e-21
-5.970004929e-22
-1.066699619e-21
-5.842283799e-22
-9.636416712e-22
-5.638493724e-22
-8.673356175e-22
-5.378063685e-22
-7.781739771e-22
-5.078314236e-22
-6.96263711e-22
-4.754100666e-22
-6.214979048e-22
-4.417731927e-22
-5.53616994e-22
-4.079077064e-22
-4.922588616e-22
-3.745786038e-22
-4.369983629e-22
-3.42356912e-22
-3.873774865e-22
-3.116495146e-22
-3.429276174e-22
-2.827282466e-22
-3.031853865e-22
-2.557566865e-22
-2.67703467e-22
-2.308138407e-22
-2.360574936e-22
-2.079144328e-22
-2.078500786e-22
-1.870258497e-22
-1.82712706e-22
-1.680819929e-22
-1.603061135e-22
-1.509943819e-22
-1.40319629e-22
-1.356608957e-22
-1.224698106e-22
-1.219725336e-22
-1.064986473e-22
-1.098185482e-22
-9.217150467e-23
-9.909026616e-23
-7.927494479e-23
-8.96838686e-23
-6.761451013e-23
-8.150236152e-23
-5.701252826e-23
-7.445692522e-23
-4.730597322e-23
-6.846779822e-23
-3.834440172e-23
-6.346481978e-23
-2.998796909e-23
-5.93877291e-23
-2.210551799e-23
-5.618629866e-23
-1.457272266e-23
-5.382036439e-23
-7.270270448e-24
-5.225980841e-23
-5.148454783e-23
-4.387845037e-39
-5.054638101e-40
-7.289842793e-36
-8.640070075e-37
-8.539118938e-33
-1.110554984e-33
-8.621913028e-31
-3.039177061e-31
-3.715607384e-30
-8.777028963e-30
6.756027718e-27
-1.110189756e-26
4.113322783e-23
-7.342307244e-23
-7.209944509e-18
-3.486097405e-19
-2.193940279e-21
-1.460396997e-24
-2.163794709e-21
-1.443712269e-22
-2.105601814e-21
-2.806282638e-22
-2.022972989e-21
-4.037580074e-22
-1.920611958e-21
-5.091669794e-22
-1.803721429e-21
-5.940742239e-22
-1.677475724e-21
-6.574662e-22
-1.546619518e-21
-6.99841166e-22
-1.415214057e-21
-7.228376536e-22
-1.28652033e-21
-7.288356312e-22
-1.162990163e-21
-7.205937471e-22
-1.0463303e-21
-7.009572209e-22
-9.376073051e-22
-6.726471197e-22
-8.373680816e-22
-6.381259936e-22
-7.457587596e-22
-5.995266631e-22
-6.6263176e-22
-5.586283579e-22
-5.876362348e-22
-5.168652346e-22
-5.202907403e-22
-4.753547858e-22
-4.600391999e-22
-4.34936634e-22
-4.062923221e-22
-3.962150145e-22
-3.58457035e-22
-3.596005854e-22
-3.15956452e-22
-3.253489906e-22
-2.782426147e-22
-2.935948755e-22
-2.448038968e-22
-2.643809095e-22
-2.151685812e-22
-2.376819027e-22
-1.889057808e-22
-2.134244082e-22
-1.656245858e-22
-1.915023463e-22
-1.449720838e-22
-1.717892361e-22
-1.266307147e-22
-1.541476015e-22
-1.103152833e-22
-1.384360742e-22
-9.576984747e-23
-1.245146515e-22
-8.276462338e-23
-1.122484997e-22
-7.109299475e-23
-1.015106307e-22
-6.056867602e-23
-9.218371824e-23
-5.102305133e-23
-8.416127161e-23
-4.230269423e-23
-7.734833878e-23
-3.426706053e-23
-7.166187574e-23
-2.678633833e-23
-6.703088852e-23
-1.973943351e-23
-6.339643105e-23
-1.301206652e-23
-6.071152401e-23
-6.494959839e-24
-5.894104694e-23
-5.806164299e-23
-3.78176317e-37
-7.854824653e-38
-1.947159494e-34
-5.070595777e-35
-7.313145948e-32
-1.318332023e-32
-3.418938791e-30
-1.346440638e-30
-9.907806529e-30
-2.545007324e-29
4.596144233e-27
-1.572679448e-26
1.001949626e-22
-1.736139564e-22
-7.426784938e-19
-4.806722668e-19
-2.337129383e-21
-1.491611507e-24
-2.300022533e-21
-1.814840142e-22
-2.228708657e-21
-3.519547575e-22
-2.128368089e-21
-5.041179448e-22
-2.00551414e-21
-6.320467772e-22
-1.86711588e-21
-7.325047225e-22
-1.719858851e-21
-8.047617947e-22
-1.569627866e-21
-8.50116977e-22
-1.421225785e-21
-8.712907432e-22
-1.278292631e-21
-8.718258902e-22
-1.143367205e-21
-8.555822769e-22
-1.018032479e-21
-8.263609425e-22
-9.03096816e-22
-7.876575541e-22
-7.987776254e-22
-7.425256061e-22
-7.048676082e-22
-6.935226192e-22
-6.208742115e-22
-6.427130688e-22
-5.461299749e-22
-5.917060113e-22
-4.798756034e-22
-5.417107665e-22
-4.213196297e-22
-4.935991226e-22
-3.69679169e-22
-4.479667258e-22
-3.242061126e-22
-4.05189452e-22
-2.842025504e-22
-3.654727408e-22
-2.490285236e-22
-3.288932816e-22
-2.181045241e-22
-2.954332879e-22
-1.909105579e-22
-2.650080518e-22
-1.669830883e-22
-2.374876646e-22
-1.459107901e-22
-2.12713832e-22
-1.273297443e-22
-1.905126636e-22
-1.109184892e-22
-1.707042228e-22
-9.63931881e-23
-1.531095142e-22
-8.350306238e-23
-1.375554743e-22
-7.202616923e-23
-1.238784319e-22
-6.176555119e-23
-1.119264117e-22
-5.254575582e-23
-1.015605809e-22
-4.420970431e-23
-9.265607379e-23
-3.66158771e-23
-8.5102378e-23
-2.963577931e-23
-7.880342381e-23
-2.315164654e-23
-7.367748597e-23
-1.705435131e-23
-6.96569807e-23
-1.124147294e-23
-6.668822132e-23
-5.615497718e-24
-6.473117991e-23
-6.375928897e-23
-9.185477774e-34
-1.181763617e-34
-1.181218908e-31
-4.706608354e-32
-2.62029815e-30
-2.873039979e-30
-2.155599306e-29
-5.295168247e-29
-5.247224932e-29
-6.712002851e-28
2.64141877e-26
-4.406864139e-26
1.116466285e-22
-2.852349884e-22
5.30310372e-18
-5.268540017e-19
-2.517501095e-21
-1.503808337e-24
-2.470454066e-21
-2.285369837e-22
-2.380842296e-21
-4.415791492e-22
-2.256280774e-21
-6.286988425e-22
-2.105968432e-21
-7.823849754e-22
-1.939379414e-21
-8.991259863e-22
-1.765227585e-21
-9.789521993e-22
-1.590819288e-21
-1.024570112e-21
-1.421780173e-21
-1.04038088e-21
-1.262067969e-21
-1.031595214e-21
-1.114163302e-21
-1.003550064e-21
-9.793443186e-22
-9.612489381e-22
-8.57977624e-22
-9.090990384e-22
-7.497849363e-22
-8.507987352e-22
-6.540660847e-22
-7.893274302e-22
-5.698731874e-22
-7.269973018e-22
-4.961390799e-22
-6.655366813e-22
-4.31766932e-22
-6.06184547e-22
-3.75689109e-22
-5.497834846e-22
-3.26902921e-22
-4.968641889e-22
-2.844897849e-22
-4.477184236e-22
-2.476230032e-22
-4.024597366e-22
-2.15568108e-22
-3.610725827e-22
-1.876786406e-22
-3.234511613e-22
-1.633893815e-22
-2.894295212e-22
-1.422083887e-22
-2.588044721e-22
-1.237087245e-22
-2.313527118e-22
-1.075204109e-22
-2.068433871e-22
-9.332291753e-23
-1.850471111e-22
-8.083833196e-23
-1.657422673e-22
-6.982526203e-23
-1.487192701e-22
-6.007345659e-23
-1.337833051e-22
-5.139909759e-23
-1.207559622e-22
-4.364069754e-23
-1.094760766e-22
-3.665552936e-23
-9.980002073e-23
-3.031651529e-23
-9.160163183e-23
-2.450950438e-23
-8.477191235e-23
-1.913087349e-23
-7.921860842e-23
-1.408539227e-23
-7.48657428e-23
-9.284299018e-24
-7.165315956e-23
-4.643540675e-24
-6.953612174e-23
-6.848499052e-23
-1.024723228e-30
-1.435358011e-31
-1.127909645e-28
-6.223511212e-29
-1.884781092e-27
-5.311496323e-27
-6.760056947e-27
-9.44469544e-26
-6.006938538e-26
-4.281325594e-25
4.303150437e-26
-3.77067933e-24
-6.824538351e-23
-2.187855331e-22
6.2504253e-18
-2.189128169e-19
-2.745146581e-21
-2.816781544e-24
-2.683443933e-21
-2.902455724e-22
-2.567924544e-21
-5.571111643e-22
-2.409949381e-21
-7.866933873e-22
-2.22270957e-21
-9.696506493e-22
-2.019219099e-21
-1.102648712e-21
-1.810867424e-21
-1.187342459e-21
-1.606656027e-21
-1.228826358e-21
-1.413021112e-21
-1.234066829e-21
-1.234047767e-21
-1.210625692e-21
-1.071884154e-21
-1.16577681e-21
-9.272128646e-22
-1.105989256e-21
-7.996921822e-22
-1.036694528e-21
-6.883251659e-22
-9.622462113e-22
-5.917445792e-22
-8.859939958e-22
-5.084187491e-22
-8.10414488e-22
-4.367911505e-22
-7.372608637e-22
-3.753685185e-22
-6.677088337e-22
-3.227712702e-22
-6.024872946e-22
-2.777577233e-22
-5.419890346e-22
-2.392310215e-22
-4.863609851e-22
-2.062353224e-22
-4.355756745e-22
-1.779458595e-22
-3.894864767e-22
-1.536559876e-22
-3.47869465e-22
-1.327632191e-22
-3.10454526e-22
-1.147554772e-22
-2.769480553e-22
-9.919825588e-23
-2.470491756e-22
-8.572302962e-23
-2.204610505e-22
-7.401702851e-23
-1.968985342e-22
-6.381436313e-23
-1.760931275e-22
-5.488840724e-23
-1.577959792e-22
-4.704530988e-23
-1.417794976e-22
-4.011849557e-23
-1.278379953e-22
-3.396401244e-23
-1.157876825e-22
-2.845659682e-23
-1.05466242e-22
-2.348633567e-23
-9.673215935e-23
-1.895582149e-23
-8.946393048e-23
-1.477770782e-23
-8.355923963e-23
-1.087258589e-23
-7.893417124e-23
-7.167113365e-24
-7.552250239e-23
-3.592335797e-24
-7.327510787e-23
-7.215949933e-23
-8.975745257e-28
-2.23009873e-28
-1.045620537e-25
-1.267082237e-25
-1.517252966e-24
-6.15914373e-24
-2.495579509e-24
-3.943902392e-23
-2.573386053e-24
-6.134881234e-23
-6.130888878e-25
-5.595543778e-23
-7.39149703e-24
-2.390105574e-22
-5.833007751e-18
-1.283921769e-19
-3.033872855e-21
-7.409296452e-24
-2.950239219e-21
-3.738851502e-22
-2.797460192e-21
-7.099028199e-22
-2.592889987e-21
-9.912829786e-22
-2.355715845e-21
-1.206850661e-21
-2.103938213e-21
-1.354458606e-21
-1.852386034e-21
-1.438933232e-21
-1.611934188e-21
-1.469323062e-21
-1.389616239e-21
-1.456435824e-21
-1.189231143e-21
-1.411067933e-21
-1.012123689e-21
-1.342947412e-21
-8.579398519e-22
-1.260242137e-21
-7.252605765e-22
-1.169448626e-21
-6.120853069e-22
-1.075501958e-21
-5.161738197e-22
-9.819914802e-22
-4.352709924e-22
-8.914086906e-22
-3.672427591e-22
-8.053857008e-22
-3.101489411e-22
-7.249043271e-22
-2.622737451e-22
-6.504690739e-22
-2.221295383e-22
-5.822445624e-22
-1.884449808e-22
-5.201614251e-22
-1.601450086e-22
-4.639959088e-22
-1.363275013e-22
-4.13428439e-22
-1.162395847e-22
-3.680858376e-22
-9.925524801e-23
-3.275711238e-22
-8.485511725e-23
-2.914840523e-22
-7.260870866e-23
-2.594348521e-22
-6.215917426e-23
-2.310530475e-22
-5.321038068e-23
-2.059927756e-22
-4.551607966e-23
-1.839356492e-22
-3.887089976e-23
-1.645919382e-22
-3.310289095e-23
-1.477006274e-22
-2.806737312e-23
-1.330287578e-22
-2.364186614e-23
-1.203703379e-22
-1.972190812e-23
-1.095450313e-22
-1.621759647e-23
-1.003967627e-22
-1.305071208e-23
-9.279234392e-23
-1.015230912e-23
-8.662018496e-23
-7.460672017e-24
-8.178913941e-23
-4.919556797e-24
-7.822751224e-23
-2.476646594e-24
-7.588225076e-23
-7.471833044e-23
-7.894007775e-25
-2.409964597e-25
-3.79116079e-23
-4.003098485e-23
-2.045699037e-22
-5.02864166e-22
-2.047373838e-22
-1.300715078e-21
-5.097415994e-23
-1.323823741e-21
-1.765590548e-23
-2.400251932e-22
6.480423453e-21
-6.838388765e-21
-1.62305067e-17
-1.12491676e-18
-3.404198523e-21
-2.173072962e-23
-3.286166294e-21
-4.919233246e-22
-3.07878464e-21
-9.172971039e-22
-2.808446907e-21
-1.261640101e-21
-2.503347788e-21
-1.511975658e-21
-2.188457901e-21
-1.669380763e-21
-1.882829718e-21
-1.744600017e-21
-1.599100769e-21
-1.75309688e-21
-1.344296853e-21
-1.711290796e-21
-1.121151357e-21
-1.634270587e-21
-9.294508195e-22
-1.534711111e-21
-7.671709607e-22
-1.422591054e-21
-6.313318174e-22
-1.305362607e-21
-5.185872626e-22
-1.188327006e-21
-4.255991764e-22
-1.075065581e-21
-3.492529045e-22
-9.678463556e-22
-2.867639055e-22
-8.679713223e-22
-2.357145119e-22
-7.760554155e-22
-1.940488899e-22
-6.922412993e-22
-1.600452867e-22
-6.163595074e-22
-1.322778718e-22
-5.480447439e-22
-1.095756783e-22
-4.868183863e-22
-9.098292049e-23
-4.321456741e-22
-7.572287503e-23
-3.834743619e-22
-6.316623268e-23
-3.402600505e-22
-5.280406936e-23
-3.019821053e-22
-4.422517915e-23
-2.681530338e-22
-3.709731436e-23
-2.383233989e-22
-3.115180927e-23
-2.120837525e-22
-2.617106675e-23
-1.890646367e-22
-2.197842704e-23
-1.689353813e-22
-1.842999391e-23
-1.514022058e-22
-1.540805376e-23
-1.362059668e-22
-1.2815781e-23
-1.231197833e-22
-1.057297527e-23
-1.119466922e-22
-8.612621052e-24
-1.025174325e-22
-6.878098486e-24
-9.468841919e-23
-5.320905956e-24
-8.833994331e-23
-3.898780226e-24
-8.337461944e-23
-2.574120617e-24
-7.971608951e-23
-1.312639406e-24
-7.730798752e-23
-7.611316508e-23
-1.323786647e-22
-2.183121964e-23
-1.583583382e-21
-7.225687182e-22
-3.642222788e-21
-3.25954965e-21
-3.118795172e-21
-6.198511603e-21
-3.954562212e-22
-6.306048624e-21
1.467020397e-22
-1.03063134e-21
4.746451267e-19
-4.815935123e-19
-1.675092376e-18
-2.198647356e-16
-3.885009762e-21
-8.402030483e-23
-3.711421899e-21
-6.655171333e-22
-3.423063005e-21
-1.205668632e-21
-3.058787726e-21
-1.625934772e-21
-2.660806348e-21
-1.909982917e-21
-2.263754176e-21
-2.066465212e-21
-1.891408409e-21
-2.116984394e-21
-1.55736991e-21
-2.087180255e-21
-1.267339852e-21
-2.00137192e-21
-1.021641655e-21
-1.880025953e-21
-8.173679414e-22
-1.739047997e-21
-6.499689667e-22
-1.590059099e-21
-5.143140893e-22
-1.441092336e-21
-4.053371594e-22
-1.297384443e-21
-3.183864532e-22
-1.162102316e-21
-2.493809443e-22
-1.036943274e-21
-1.948487148e-22
-9.226001914e-22
-1.518995538e-22
-8.191062894e-22
-1.181652783e-22
-7.260821968e-22
-9.17281377e-23
-6.429080089e-22
-7.104884808e-23
-5.68839957e-22
-5.490021249e-23
-5.030873261e-22
-4.230889347e-23
-4.44861491e-22
-3.250596715e-23
-3.93405788e-22
-2.488585625e-23
-3.48012467e-22
-1.897275629e-23
-3.080311167e-22
-1.439350203e-23
-2.728716016e-22
-1.085582529e-23
-2.420035843e-22
-8.13104406e-24
-2.14954028e-22
-6.040346015e-24
-1.91303602e-22
-4.443959016e-24
-1.706825941e-22
-3.232623285e-24
-1.527667093e-22
-2.320887798e-24
-1.372729937e-22
-1.641845628e-24
-1.239560205e-22
-1.142999394e-24
-1.12604416e-22
-7.830105946e-25
-1.030377591e-22
-5.291368506e-25
-9.510386763e-23
-3.5520121e-25
-8.86764666e-23
-2.399691428e-25
-8.365322745e-23
-1.658333275e-25
-7.995416446e-23
-1.177249372e-25
-7.752037277e-23
-7.631309509e-23
-2.62114604e-21
-2.428850319e-24
-1.01843709e-20
-4.125117385e-22
-1.423594518e-20
-3.66238e-21
-1.266205665e-20
-9.191366719e-21
-4.960770813e-21
-1.320906228e-20
1.035898826e-19
-1.09886748e-19
9.896426037e-18
-1.027613422e-17
1.930910591e-24
-1.293923001e-15
-4.490424475e-21
-1.288129244e-22
-4.251289925e-21
-9.04657631e-22
-3.843247387e-21
-1.613723805e-21
-3.342878705e-21
-2.12632285e-21
-2.81739614e-21
-2.435491367e-21
-2.314401085e-21
-2.569492551e-21
-1.86172549e-21
-2.569698606e-21
-1.471663632e-21
-2.477286998e-21
-1.146073222e-21
-2.327013406e-21
-8.807216796e-22
-2.145434673e-21
-6.684191309e-22
-1.95141373e-21
-5.010283433e-22
-1.757518969e-21
-3.706220081e-22
-1.571573536e-21
-2.700635115e-22
-1.398023461e-21
-1.932308765e-22
-1.239020995e-21
-1.350380343e-22
-1.095227541e-21
-9.135292555e-23
-9.663819554e-22
-5.887237269e-23
-8.516885712e-22
-3.498738301e-23
-7.500738252e-22
-1.765614345e-23
-6.603506267e-22
-5.292284658e-24
-5.813197571e-22
3.329396038e-24
-5.118293293e-22
9.150339282e-24
-4.508069509e-22
1.28905978e-23
-3.972745655e-22
1.509843747e-23
-3.503526317e-22
1.618940401e-23
-3.092580143e-22
1.647687463e-23
-2.732984056e-22
1.619582265e-23
-2.418650612e-22
1.552122598e-23
-2.144249458e-22
1.458227948e-23
-1.905129432e-22
1.347333715e-23
-1.697244981e-22
1.226231655e-23
-1.51708877e-22
1.099713969e-23
-1.361631286e-22
9.710658858e-24
-1.228267552e-22
8.424416614e-24
-1.114770716e-22
7.151510719e-24
-1.019252112e-22
5.898774608e-24
-9.401272633e-23
4.668436905e-24
-8.76087365e-23
3.459387671e-24
-8.260757399e-23
2.268151684e-24
-7.892688728e-23
1.08964867e-24
-7.650616615e-23
-7.530566029e-23
-9.58727971e-21
9.077403462e-22
-1.876596662e-20
3.354786817e-21
-2.176307e-20
-2.698090848e-22
-2.112903647e-20
-7.509622217e-21
-1.881160777e-20
-1.27426793e-20
-3.945857378e-20
-9.359756683e-20
2.502850528e-18
-1.282229809e-17
6.667073085e-24
-1.275172674e-15
-5.323341188e-21
-1.756274362e-22
-4.960007658e-21
-1.267997109e-21
-4.355810778e-21
-2.217933324e-21
-3.65218753e-21
-2.829965498e-21
-2.951603281e-21
-3.136101504e-21
-2.314812332e-21
-3.206315788e-21
-1.769487173e-21
-3.115062388e-21
-1.321522506e-21
-2.925296557e-21
-9.645886083e-22
-2.683998386e-21
-6.867634653e-22
-2.423317003e-21
-4.74563427e-22
-2.163676961e-21
-3.151051162e-22
-1.917046372e-21
-1.970826902e-22
-1.689670837e-21
-1.110643612e-22
-1.484122322e-21
-4.943613066e-23
-1.300735282e-21
-6.18848774e-24
-1.138566621e-21
2.334580843e-23
-9.960129207e-22
4.274829114e-23
-8.711927974e-22
5.474179507e-23
-7.62173983e-22
6.138047035e-23
-6.671006957e-22
6.420349142e-23
-5.842587355e-22
6.43566525e-23
-5.121028293e-22
6.26871116e-23
-4.492619434e-22
5.981643768e-23
-3.945324275e-22
5.619650808e-23
-3.468650445e-22
5.215204909e-23
-3.05349504e-22
4.791287784e-23
-2.691985856e-22
4.36382581e-23
-2.377329883e-22
3.943524648e-23
-2.103674668e-22
3.537247411e-23
-1.865984768e-22
3.14904694e-23
-1.65993358e-22
2.780936432e-23
-1.481809785e-22
2.433462394e-23
-1.328437184e-22
2.106128448e-23
-1.197106494e-22
1.797706745e-23
-1.085517707e-22
1.506464841e-23
-9.91731682e-23
1.230329152e-23
-9.141298223e-23
9.6700102e-24
-8.513808065e-23
7.140376212e-24
-8.024135349e-23
4.689071086e-24
-7.663955855e-23
2.290252825e-24
-7.427166175e-23
-7.309762897e-23
-9.990987628e-21
1.912500524e-21
-1.505654028e-20
6.858569649e-21
-1.613322104e-20
3.274498406e-21
-1.315512453e-20
-2.361616234e-21
-1.429708456e-20
-5.920301387e-21
-5.174934295e-20
-5.01672727e-20
-6.369814951e-18
-6.482222489e-18
2.128719226e-24
-5.597298288e-16
-6.562163432e-21
-4.941725103e-22
-5.909959678e-21
-1.920206811e-21
-4.968002004e-21
-3.159903639e-21
-3.958671578e-21
-3.839315329e-21
-3.022188439e-21
-4.072610534e-21
-2.223872787e-21
-4.004663732e-21
-1.579955683e-21
-3.75901812e-21
-1.080384766e-21
-3.424912372e-21
-7.040091856e-22
-3.060425057e-21
-4.271831926e-22
-2.70020019e-21
-2.279640466e-22
-2.362959308e-21
-8.774245025e-23
-2.05733707e-21
8.464128861e-24
-1.785952301e-21
7.232736537e-23
-1.548066102e-21
1.127405162e-22
-1.3412345e-21
1.3637459e-22
-1.162292144e-21
1.481755655e-22
-1.007910577e-21
1.517763596e-22
-8.748953475e-22
1.498236313e-22
-7.603279216e-22
1.442301376e-22
-6.616186092e-22
1.36366236e-22
-5.765108051e-22
1.272035421e-22
-5.030604884e-22
1.174218611e-22
-4.396048102e-22
1.074883613e-22
-3.847274785e-22
9.771597541e-23
-3.372250161e-22
8.830635598e-23
-2.960758485e-22
7.938139448e-23
-2.604129908e-22
7.100629142e-23
-2.295004476e-22
6.320639462e-23
-2.027131183e-22
5.597944421e-23
-1.795198481e-22
4.930443325e-23
-1.594692275e-22
4.31479759e-23
-1.421777436e-22
3.74688402e-23
-1.273199287e-22
3.222113052e-23
-1.146201893e-22
2.735647732e-23
-1.038460493e-22
2.282549846e-23
-9.480258114e-23
1.857872739e-23
-8.732783958e-23
1.456715259e-23
-8.128914682e-23
1.07424756e-23
-7.658010539e-23
7.057167583e-24
-7.311824221e-23
3.464384505e-24
-7.084320768e-23
-6.971547233e-23
-2.554006106e-21
7.520201205e-22
-3.791185137e-21
5.498489984e-21
-3.703197233e-21
3.944453592e-21
-3.807175588e-21
-9.143281065e-22
-5.706069929e-21
-3.73688147e-21
-4.018076006e-20
-1.535710485e-20
-2.106136335e-18
-4.412989467e-18
2.605289388e-25
-4.744472477e-16
-8.323570343e-21
-1.047821413e-21
-7.15003553e-21
-3.093747574e-21
-5.647981235e-21
-4.661970575e-21
-4.192687885e-21
-5.294628086e-21
-2.954857423e-21
-5.310466893e-21
-1.978672331e-21
-4.980881119e-21
-1.246139817e-21
-4.491589267e-21
-7.160704515e-22
-3.95502664e-21
-3.438778598e-22
-3.432668744e-21
-8.998549309e-23
-2.954149757e-21
7.764505426e-23
-2.530653064e-21
1.83645956e-22
-2.16340708e-21
2.463624891e-22
-1.848743727e-21
2.791747387e-22
-1.580958903e-21
2.916994644e-22
-1.353845302e-21
2.907720854e-22
-1.161456224e-21
2.812053502e-22
-9.984405334e-22
2.663567017e-22
-8.601484655e-22
2.485441993e-22
-7.426220969e-22
2.293476386e-22
-6.42533467e-22
2.098248473e-22
-5.571039966e-22
1.906662853e-22
-4.840222913e-22
1.723051961e-22
-4.21368281e-22
1.549959198e-22
-3.675467654e-22
1.388694678e-22
-3.212309341e-22
1.239728851e-22
-2.813152425e-22
1.102970558e-22
-2.468765411e-22
9.779627039e-23
-2.171422377e-22
8.640191654e-23
-1.914643259e-22
7.603197793e-23
-1.692982445e-22
6.659754067e-23
-1.50185684e-22
5.800716558e-23
-1.337406043e-22
5.016973924e-23
-1.196378616e-22
4.299624286e-23
-1.076039558e-22
3.640075335e-23
-9.740950489e-23
3.030090185e-23
-8.886313454e-23
2.461795089e-23
-8.180653006e-23
1.927660542e-23
-7.611045526e-23
1.420463981e-23
-7.167158149e-23
9.33239929e-24
-6.841000606e-23
4.592217424e-24
-6.626736741e-23
-6.520548773e-23
3.919620967e-22
1.937785158e-23
2.963035005e-21
1.442916776e-21
3.490688795e-21
3.13847253e-21
1.792360018e-21
3.926419025e-22
-4.522878939e-22
-1.927193332e-21
-1.482664347e-20
-1.902168559e-21
-2.244162023e-18
-2.183568127e-18
-3.16695458e-17
-3.99769737e-16
-1.100779883e-20
-2.320497608e-21
-8.719679516e-21
-5.381872837e-21
-6.282224419e-21
-7.099438315e-21
-4.209879076e-21
-7.366992837e-21
-2.626198216e-21
-6.894173652e-21
-1.489941867e-21
-6.117169768e-21
-7.098843408e-22
-5.271685429e-21
-1.938607399e-22
-4.471095147e-21
1.345851045e-22
-3.761165688e-21
3.335049275e-22
-3.153126785e-21
4.4490925e-22
-2.642120599e-21
4.983377142e-22
-2.216904658e-21
5.141782501e-22
-1.864659162e-21
5.063179896e-22
-1.573179201e-21
4.841152286e-22
-1.331728624e-21
4.538109674e-22
-1.131243429e-21
4.195171604e-22
-9.642434257e-22
3.838996711e-22
-8.24632751e-22
3.486466901e-22
-7.074758023e-22
3.147886395e-22
-6.087868437e-22
2.82916131e-22
-5.2534748e-22
2.533282534e-22
-4.545547881e-22
2.261333307e-22
-3.942979279e-22