/*--------------------------------*- C++ -*----------------------------------*\
  =========                 |
  \\      /  F ield         | OpenFOAM: The Open Source CFD Toolbox
   \\    /   O peration     | Website:  https://openfoam.org
    \\  /    A nd           | Version:  6
     \\/     M anipulation  |
\*---------------------------------------------------------------------------*/
FoamFile
{
    version     2.0;
    format      ascii;
    class       volVectorField;
    location    "0.03";
    object      gradT;
}
// * * * * * * * * * * * * * * * * * * * * * * * * * * * * * * * * * * * * * //

dimensions      [0 -1 0 1 0 0 0];

internalField   nonuniform List<vector> 
2500
(
(0 -0.1405743692 40.11540907)
(0 -0.5355782931 39.56345309)
(0 -1.17686959 37.93348172)
(0 -2.054933887 34.61080378)
(0 -3.068411194 29.10575422)
(0 -4.040923218 21.26027374)
(0 -4.758650231 11.38785271)
(0 -2.575254563 0.3097508854)
(0 -0.06860127703 0.03559804163)
(0 -0.007662865199 0.006998636314)
(0 -0.001480302166 0.001358431395)
(0 -0.0002779178627 0.0002700929724)
(0 -5.223303961e-05 5.677699491e-05)
(0 -1.017446565e-05 1.262055563e-05)
(0 -2.091559634e-06 2.869465281e-06)
(0 -4.466687075e-07 6.387098996e-07)
(0 -9.458534578e-08 1.353840994e-07)
(0 -1.896412654e-08 2.621096398e-08)
(0 -3.811648263e-09 5.082197684e-09)
(0 -3.764590877e-10 1.129377263e-09)
(0 -4.705738596e-11 9.411477192e-10)
(0 -6.117460175e-10 -5.646886315e-10)
(0 -1.694065895e-09 -1.647008509e-09)
(0 -1.458778965e-09 -3.294017017e-09)
(0 1.882295438e-10 -3.199902245e-09)
(0 1.411721579e-09 -2.682271e-09)
(0 0 -1.505836351e-09)
(0 -1.411721579e-09 -2.964615315e-09)
(0 0 -4.42339428e-09)
(0 -7.058607894e-10 -3.670476105e-09)
(0 4.705738596e-11 -3.999877806e-09)
(0 2.494041456e-09 -2.964615315e-09)
(0 1.694065895e-09 -1.599951123e-09)
(0 -1.129377263e-09 -5.646886315e-10)
(0 -4.705738596e-10 -2.258754526e-09)
(0 1.364664193e-09 -1.364664193e-09)
(0 0 -7.999755613e-10)
(0 -5.646886315e-10 -1.458778965e-09)
(0 2.352869298e-10 -1.364664193e-09)
(0 4.705738596e-11 -1.035262491e-09)
(0 9.411477192e-11 -1.317606807e-09)
(0 -1.317606807e-09 -9.882051051e-10)
(0 -1.458778965e-09 -2.635213614e-09)
(0 1.647008509e-09 -2.44698407e-09)
(0 0 -9.882051051e-10)
(0 -3.294017017e-10 -2.44698407e-09)
(0 -4.705738596e-11 -1.317606807e-09)
(0 0 -2.44698407e-09)
(0 1.97641021e-09 -1.317606807e-09)
(0 -7.529181753e-10 -4.235164736e-10)
(0 -0.4113816105 54.09561507)
(0 -1.646349058 53.65426902)
(0 -3.775779724 51.88770734)
(0 -6.77279361 47.78851917)
(0 -10.28211884 40.5331747)
(0 -13.6769783 29.80466656)
(0 -16.19187262 16.02661777)
(0 -8.777000102 0.4385223727)
(0 -0.2341509721 0.05271215839)
(0 -0.02657674509 0.01105897124)
(0 -0.005248241129 0.002397368409)
(0 -0.001023736443 0.0005602277795)
(0 -0.0002052393771 0.0001409800696)
(0 -4.373311104e-05 3.645954501e-05)
(0 -9.890286094e-06 9.189742789e-06)
(0 -2.287412474e-06 2.182050987e-06)
(0 -5.179606472e-07 4.81114714e-07)
(0 -1.112436604e-07 9.703232985e-08)
(0 -2.131699584e-08 1.661125724e-08)
(0 -3.811648263e-09 2.776385772e-09)
(0 -1.647008509e-09 -1.129377263e-09)
(0 -1.929352824e-09 -1.129377263e-09)
(0 -1.035262491e-09 -1.176434649e-09)
(0 -4.705738596e-11 5.176312455e-10)
(0 4.235164736e-10 2.352869298e-10)
(0 2.823443158e-10 2.352869298e-10)
(0 -3.294017017e-10 -1.317606807e-09)
(0 -1.552893737e-09 -1.882295438e-10)
(0 -7.058607894e-10 -3.764590877e-10)
(0 1.223492035e-09 -3.764590877e-10)
(0 6.117460175e-10 -7.529181753e-10)
(0 -9.411477192e-11 -1.552893737e-09)
(0 7.058607894e-10 -2.870500543e-09)
(0 3.764590877e-10 -2.917557929e-09)
(0 -2.823443158e-10 -1.411721579e-10)
(0 1.411721579e-10 -1.270549421e-09)
(0 -9.411477192e-11 -1.835238052e-09)
(0 0 -1.176434649e-09)
(0 1.411721579e-10 -1.364664193e-09)
(0 4.705738596e-11 -1.458778965e-09)
(0 -4.705738596e-11 -1.223492035e-09)
(0 0 -1.647008509e-09)
(0 0 9.411477192e-11)
(0 -4.705738596e-11 -1.882295438e-10)
(0 0 -1.647008509e-09)
(0 4.705738596e-11 -1.882295438e-10)
(0 4.705738596e-11 -1.364664193e-09)
(0 0 -4.705738596e-11)
(0 4.705738596e-11 -1.223492035e-09)
(0 2.494041456e-09 -2.305811912e-09)
(0 -0.5819204172 85.91284572)
(0 -2.743486017 85.90634828)
(0 -7.042619433 84.07427093)
(0 -13.40946653 78.42241404)
(0 -21.05226381 67.27698017)
(0 -28.54748015 49.89804505)
(0 -34.12479442 26.96079461)
(0 -18.54916017 0.7449656709)
(0 -0.4960646785 0.0960023838)
(0 -0.05797765513 0.02241967886)
(0 -0.01197904567 0.005736187963)
(0 -0.002534306202 0.0016195485)
(0 -0.0005760013212 0.0004756844799)
(0 -0.0001419647925 0.0001357275242)
(0 -3.63690066e-05 3.611428497e-05)
(0 -9.155296783e-06 8.818836473e-06)
(0 -2.179556945e-06 1.96939866e-06)
(0 -4.835146407e-07 4.042229454e-07)
(0 -9.806759234e-08 7.533887492e-08)
(0 -1.807003621e-08 1.209374819e-08)
(0 -3.952820421e-09 1.74112328e-09)
(0 -7.058607894e-10 7.529181753e-10)
(0 0 1.364664193e-09)
(0 -1.411721579e-10 1.411721579e-09)
(0 -9.411477192e-11 1.317606807e-09)
(0 -1.411721579e-10 7.058607894e-10)
(0 -3.764590877e-10 -2.823443158e-10)
(0 -4.235164736e-10 9.411477192e-11)
(0 -2.352869298e-10 1.035262491e-09)
(0 -1.176434649e-09 -4.235164736e-10)
(0 -1.082319877e-09 -1.364664193e-09)
(0 4.235164736e-10 -1.129377263e-09)
(0 3.764590877e-10 -8.470329473e-10)
(0 1.647008509e-09 -1.599951123e-09)
(0 1.129377263e-09 -7.529181753e-10)
(0 -3.764590877e-10 9.411477192e-10)
(0 4.705738596e-11 0)
(0 -9.411477192e-11 9.411477192e-11)
(0 4.705738596e-11 0)
(0 1.411721579e-10 1.74112328e-09)
(0 -9.411477192e-11 1.505836351e-09)
(0 0 1.411721579e-09)
(0 0 -4.705738596e-11)
(0 -4.705738596e-11 0)
(0 0 -4.705738596e-11)
(0 -9.411477192e-11 0)
(0 9.411477192e-11 -4.705738596e-11)
(0 1.411721579e-10 8.940903332e-10)
(0 -2.352869298e-10 1.505836351e-09)
(0 2.729328386e-09 2.305811912e-09)
(0 -0.4178790476 143.8188355)
(0 -3.48492385 145.062618)
(0 -11.25971396 143.7515223)
(0 -23.57008437 135.8544301)
(0 -38.80648784 117.8963841)
(0 -53.99316386 88.18850176)
(0 -65.344952 47.86720833)
(0 -35.64179233 1.343433615)
(0 -0.9566969641 0.1912092179)
(0 -0.1168429409 0.05193187978)
(0 -0.02604837149 0.01607007698)
(0 -0.006284239974 0.00532495502)
(0 -0.001689060306 0.001726320156)
(0 -0.000483303306 0.0005184465148)
(0 -0.0001367990679 0.0001413535641)
(0 -3.643220467e-05 3.489163997e-05)
(0 -8.932621232e-06 7.826207974e-06)
(0 -2.00539756e-06 1.605268607e-06)
(0 -4.133520783e-07 3.039907133e-07)
(0 -7.736234252e-08 5.275132966e-08)
(0 -1.294078114e-08 9.458534578e-09)
(0 -2.399926684e-09 3.294017017e-09)
(0 -4.235164736e-10 1.176434649e-09)
(0 -9.411477192e-11 1.176434649e-09)
(0 -2.352869298e-10 7.058607894e-10)
(0 -1.270549421e-09 8.940903332e-10)
(0 -9.411477192e-10 5.646886315e-10)
(0 -2.823443158e-10 5.646886315e-10)
(0 -1.129377263e-09 -1.270549421e-09)
(0 -1.223492035e-09 -9.411477192e-10)
(0 -9.411477192e-11 -1.411721579e-10)
(0 3.764590877e-10 0)
(0 1.882295438e-10 0)
(0 5.176312455e-10 -2.352869298e-10)
(0 2.258754526e-09 -1.599951123e-09)
(0 8.940903332e-10 -7.529181753e-10)
(0 -9.411477192e-10 0)
(0 0 -9.411477192e-11)
(0 1.788180666e-09 1.882295438e-10)
(0 1.505836351e-09 -9.411477192e-11)
(0 -3.294017017e-10 4.705738596e-11)
(0 -1.552893737e-09 0)
(0 -1.411721579e-09 9.411477192e-11)
(0 -4.705738596e-11 0)
(0 0 0)
(0 4.705738596e-11 0)
(0 9.411477192e-10 1.882295438e-10)
(0 1.505836351e-09 -9.411477192e-11)
(0 1.458778965e-09 -1.411721579e-10)
(0 -1.270549421e-09 1.364664193e-09)
(0 0.6618621301 241.5879011)
(0 -2.810799153 245.9529785)
(0 -16.25080734 246.9347427)
(0 -39.26460475 236.5488548)
(0 -68.71819214 207.6958768)
(0 -98.57665592 156.6622801)
(0 -120.9698626 85.3894882)
(0 -66.22515928 2.463176045)
(0 -1.787566414 0.4072820436)
(0 -0.2331167961 0.1341255937)
(0 -0.05858597043 0.04965553369)
(0 -0.01687806307 0.01839414894)
(0 -0.005382509733 0.006300633449)
(0 -0.001726931432 0.001938704209)
(0 -0.0005199238814 0.0005337353183)
(0 -0.0001426826529 0.0001321334693)
(0 -3.54659283e-05 2.963754165e-05)
(0 -8.005684844e-06 6.069461641e-06)
(0 -1.65058487e-06 1.143541536e-06)
(0 -3.126963297e-07 2.000880051e-07)
(0 -5.341013306e-08 3.28460554e-08)
(0 -8.893845946e-09 5.882173245e-09)
(0 -2.117582368e-09 1.411721579e-09)
(0 -6.117460175e-10 1.176434649e-09)
(0 -3.764590877e-10 5.646886315e-10)
(0 -3.294017017e-10 5.176312455e-10)
(0 -7.058607894e-10 7.058607894e-10)
(0 -2.258754526e-09 7.058607894e-10)
(0 -1.74112328e-09 -1.129377263e-09)
(0 4.705738596e-11 -1.458778965e-09)
(0 -1.882295438e-10 4.705738596e-11)
(0 5.176312455e-10 1.411721579e-10)
(0 1.411721579e-10 2.823443158e-10)
(0 9.411477192e-11 1.411721579e-10)
(0 6.117460175e-10 -3.294017017e-10)
(0 1.223492035e-09 -1.788180666e-09)
(0 7.529181753e-10 0)
(0 9.411477192e-11 -9.411477192e-11)
(0 0 0)
(0 4.705738596e-11 -1.74112328e-09)
(0 0 -1.458778965e-09)
(0 0 -1.411721579e-09)
(0 0 4.705738596e-11)
(0 -1.411721579e-10 0)
(0 0 4.705738596e-11)
(0 9.411477192e-11 0)
(0 0 0)
(0 -1.411721579e-10 -8.940903332e-10)
(0 1.176434649e-09 -1.458778965e-09)
(0 1.505836351e-09 -2.305811912e-09)
(0 3.947198266 399.6945329)
(0 1.861917722 411.0954654)
(0 -20.66383759 418.5985875)
(0 -62.80895033 406.8517384)
(0 -118.6930626 361.654543)
(0 -176.2995524 275.092383)
(0 -219.5440561 150.5249072)
(0 -120.6239985 4.566570536)
(0 -3.285747416 0.9405026579)
(0 -0.4744694508 0.3803764881)
(0 -0.1417798163 0.1613706071)
(0 -0.04963914022 0.06380017556)
(0 -0.01814450504 0.02244176242)
(0 -0.006250201437 0.006970417411)
(0 -0.001943369714 0.001922981584)
(0 -0.0005405300284 0.0004755733774)
(0 -0.0001349966759 0.0001064250311)
(0 -3.049935062e-05 2.173453602e-05)
(0 -6.282725714e-06 4.080957682e-06)
(0 -1.188104881e-06 7.095783229e-07)
(0 -2.070995556e-07 1.151023661e-07)
(0 -3.378720312e-08 1.802297882e-08)
(0 -5.082197684e-09 4.65868121e-09)
(0 -1.035262491e-09 1.788180666e-09)
(0 -9.411477192e-10 1.97641021e-09)
(0 -1.176434649e-09 7.999755613e-10)
(0 -7.058607894e-10 1.411721579e-10)
(0 -2.023467596e-09 9.411477192e-11)
(0 -3.388131789e-09 1.082319877e-09)
(0 -9.411477192e-11 -1.411721579e-10)
(0 1.505836351e-09 9.411477192e-11)
(0 7.529181753e-10 0)
(0 1.882295438e-10 1.223492035e-09)
(0 -1.882295438e-10 1.882295438e-10)
(0 2.823443158e-10 1.411721579e-10)
(0 1.223492035e-09 -1.882295438e-10)
(0 7.999755613e-10 0)
(0 0 0)
(0 1.411721579e-10 -1.882295438e-10)
(0 4.705738596e-11 9.411477192e-11)
(0 -4.705738596e-11 -9.411477192e-11)
(0 0 0)
(0 0 -9.411477192e-11)
(0 -4.705738596e-11 0)
(0 0 0)
(0 4.705738596e-11 0)
(0 4.705738596e-11 -1.411721579e-10)
(0 0 9.411477192e-11)
(0 4.705738596e-11 9.411477192e-11)
(0 2.494041456e-09 4.705738596e-11)
(0 12.06279458 645.6539789)
(0 16.09325543 671.6487568)
(0 -20.49453438 694.6107403)
(0 -96.20864926 686.0082838)
(0 -200.4775475 618.0177373)
(0 -309.7062917 474.1868848)
(0 -391.495675 260.4931473)
(0 -215.8095639 8.658066615)
(0 -5.973760461 2.376809157)
(0 -1.012248847 1.146084587)
(0 -0.375162283 0.5291634107)
(0 -0.1558069077 0.2160193401)
(0 -0.06221226793 0.0767401059)
(0 -0.02224571222 0.02386629749)
(0 -0.00701476801 0.006571186031)
(0 -0.001959239205 0.001620025709)
(0 -0.0004893046756 0.0003612769632)
(0 -0.0001103498524 7.352485975e-05)
(0 -2.267554257e-05 1.376033257e-05)
(0 -4.278457531e-06 2.383456599e-06)
(0 -7.450125345e-07 3.840353268e-07)
(0 -1.193845882e-07 5.816292904e-08)
(0 -1.84464953e-08 8.987960718e-09)
(0 -3.199902245e-09 1.74112328e-09)
(0 -1.317606807e-09 1.270549421e-09)
(0 -2.21169714e-09 4.705738596e-10)
(0 -1.411721579e-09 1.882295438e-10)
(0 -1.270549421e-09 -1.882295438e-10)
(0 -1.882295438e-09 8.940903332e-10)
(0 -1.035262491e-09 2.164639754e-09)
(0 0 -4.705738596e-11)
(0 1.647008509e-09 -3.764590877e-10)
(0 2.823443158e-10 6.117460175e-10)
(0 -9.882051051e-10 -1.882295438e-10)
(0 2.352869298e-10 1.411721579e-10)
(0 1.129377263e-09 -4.705738596e-11)
(0 8.940903332e-10 0)
(0 -9.411477192e-11 9.411477192e-11)
(0 9.411477192e-11 -9.411477192e-11)
(0 1.411721579e-10 -4.705738596e-11)
(0 -9.411477192e-11 -9.411477192e-11)
(0 0 0)
(0 0 0)
(0 -4.705738596e-11 0)
(0 0 0)
(0 -9.411477192e-11 0)
(0 9.411477192e-11 -1.411721579e-10)
(0 1.411721579e-10 -4.705738596e-11)
(0 1.129377263e-09 1.035262491e-09)
(0 1.364664193e-09 1.788180666e-09)
(0 29.94197619 1011.624092)
(0 50.81867915 1065.637404)
(0 -6.304310534 1121.26991)
(0 -139.4019533 1127.530779)
(0 -330.5144616 1031.151874)
(0 -533.8241424 798.7335945)
(0 -685.0728743 441.1108085)
(0 -378.7403366 17.13256269)
(0 -10.79772944 6.480251973)
(0 -2.322115198 3.525603552)
(0 -1.071845063 1.699814011)
(0 -0.5020624451 0.702075969)
(0 -0.2102975476 0.2495543529)
(0 -0.07641912117 0.07737013588)
(0 -0.02418964149 0.02121364798)
(0 -0.006750439143 0.005207422658)
(0 -0.00168149762 0.001156528057)
(0 -0.0003780159813 0.0002344725547)
(0 -7.742408181e-05 4.372600538e-05)
(0 -1.456440213e-05 7.549510544e-06)
(0 -2.532440283e-06 1.212998238e-06)
(0 -4.087404544e-07 1.810297638e-07)
(0 -6.155106083e-08 2.465807024e-08)
(0 -8.705616402e-09 3.105787473e-09)
(0 -2.305811912e-09 2.352869298e-10)
(0 -2.164639754e-09 1.411721579e-10)
(0 -1.364664193e-09 4.705738596e-10)
(0 -1.364664193e-09 5.646886315e-10)
(0 -1.129377263e-09 3.294017017e-10)
(0 -9.882051051e-10 9.411477192e-10)
(0 -1.035262491e-09 2.352869298e-10)
(0 1.411721579e-09 4.705738596e-11)
(0 4.705738596e-10 1.411721579e-10)
(0 -6.588034034e-10 -1.411721579e-10)
(0 3.764590877e-10 -2.352869298e-10)
(0 1.129377263e-09 4.705738596e-11)
(0 8.940903332e-10 4.705738596e-11)
(0 -9.411477192e-11 0)
(0 0 9.411477192e-11)
(0 4.705738596e-11 0)
(0 0 -4.705738596e-11)
(0 9.411477192e-11 0)
(0 0 -4.705738596e-11)
(0 -4.705738596e-11 9.411477192e-11)
(0 0 4.705738596e-11)
(0 -9.411477192e-11 1.505836351e-09)
(0 0 1.599951123e-09)
(0 1.176434649e-09 -9.411477192e-11)
(0 1.882295438e-09 0)
(0 -3.294017017e-10 -1.364664193e-09)
(0 66.07610646 1526.139757)
(0 125.7390728 1629.512662)
(0 41.39884058 1747.417048)
(0 -186.3266854 1793.342607)
(0 -529.2747324 1669.561938)
(0 -899.747357 1309.710973)
(0 -1173.096707 730.7577727)
(0 -650.4401204 36.11321914)
(0 -19.5807196 18.43481546)
(0 -5.792686808 10.71643925)
(0 -3.198689866 5.250274491)
(0 -1.606066566 2.168459658)
(0 -0.6869181011 0.7672334298)
(0 -0.2505864173 0.2365447444)
(0 -0.07917748118 0.06450612849)
(0 -0.02201635904 0.01575631748)
(0 -0.005462254826 0.003483788114)
(0 -0.001223151857 0.0007034762505)
(0 -0.0002495985867 0.000130715442)
(0 -4.679151173e-05 2.249597159e-05)
(0 -8.113446257e-06 3.60558397e-06)
(0 -1.307818871e-06 5.396070448e-07)
(0 -1.963704716e-07 7.548004708e-08)
(0 -2.752857079e-08 8.893845946e-09)
(0 -4.282222122e-09 -4.705738596e-11)
(0 -1.929352824e-09 -4.705738596e-10)
(0 -9.882051051e-10 2.823443158e-10)
(0 -1.505836351e-09 1.129377263e-09)
(0 -1.552893737e-09 7.529181753e-10)
(0 -1.035262491e-09 3.294017017e-10)
(0 -8.470329473e-10 1.411721579e-09)
(0 1.458778965e-09 1.364664193e-09)
(0 9.411477192e-11 7.999755613e-10)
(0 -1.317606807e-09 2.352869298e-10)
(0 4.235164736e-10 4.705738596e-11)
(0 1.317606807e-09 9.411477192e-11)
(0 8.940903332e-10 0)
(0 -4.705738596e-11 0)
(0 9.411477192e-11 0)
(0 0 9.411477192e-11)
(0 -9.411477192e-11 9.411477192e-11)
(0 0 0)
(0 9.411477192e-11 0)
(0 4.705738596e-11 0)
(0 1.411721579e-09 0)
(0 1.552893737e-09 0)
(0 -1.599951123e-09 0)
(0 -1.505836351e-09 9.411477192e-11)
(0 -1.411721579e-10 -1.035262491e-09)
(0 2.823443158e-09 -1.74112328e-09)
(0 133.3148814 2196.131289)
(0 272.0959705 2376.584435)
(0 157.5256342 2599.217565)
(0 -217.2570633 2729.735274)
(0 -814.1460956 2602.975018)
(0 -1472.628308 2087.374246)
(0 -1958.670628 1191.350843)
(0 -1091.063294 81.63612209)
(0 -36.19450933 52.78198722)
(0 -15.50665617 31.48208925)
(0 -9.619824656 15.41755432)
(0 -4.985103506 6.324906317)
(0 -2.142212461 2.220945704)
(0 -0.7791464225 0.6799685681)
(0 -0.2449780684 0.1842957429)
(0 -0.06777277961 0.04477737806)
(0 -0.0167343388 0.009854662712)
(0 -0.003731088606 0.001981836397)
(0 -0.0007584044548 0.0003669195673)
(0 -0.0001416742602 6.294047721e-05)
(0 -2.448875777e-05 1.005941034e-05)
(0 -3.938750262e-06 1.504377572e-06)
(0 -5.922642597e-07 2.11052376e-07)
(0 -8.432683564e-08 2.696388215e-08)
(0 -1.162317433e-08 1.223492035e-09)
(0 -1.882295438e-09 -1.929352824e-09)
(0 2.352869298e-10 -1.411721579e-09)
(0 -9.411477192e-10 -1.411721579e-09)
(0 -1.835238052e-09 -4.705738596e-11)
(0 -3.764590877e-10 9.411477192e-11)
(0 -4.705738596e-11 9.411477192e-10)
(0 7.529181753e-10 8.940903332e-10)
(0 -6.588034034e-10 -9.411477192e-11)
(0 -1.411721579e-09 -9.411477192e-11)
(0 3.294017017e-10 4.705738596e-10)
(0 1.129377263e-09 9.411477192e-10)
(0 7.999755613e-10 -4.705738596e-11)
(0 -9.411477192e-11 0)
(0 9.411477192e-11 9.411477192e-11)
(0 1.411721579e-10 -9.411477192e-11)
(0 -9.411477192e-11 -4.705738596e-11)
(0 0 0)
(0 0 -4.705738596e-11)
(0 -4.705738596e-11 -9.411477192e-11)
(0 0 -4.705738596e-11)
(0 -9.411477192e-11 -1.505836351e-09)
(0 9.411477192e-11 -1.411721579e-09)
(0 1.411721579e-10 0)
(0 9.411477192e-11 9.882051051e-10)
(0 2.399926684e-09 1.97641021e-09)
(0 246.5292529 2978.804145)
(0 528.8253494 3261.267102)
(0 394.5496789 3638.923053)
(0 -182.5692325 3929.210121)
(0 -1171.63576 3883.585679)
(0 -2311.371532 3245.477203)
(0 -3178.83483 1939.015388)
(0 -1789.008976 194.7374731)
(0 -69.73475245 147.8418514)
(0 -43.15711971 88.14358074)
(0 -28.3558728 42.73259902)
(0 -14.80267518 17.34476823)
(0 -6.33185585 6.034027858)
(0 -2.287236378 1.833022786)
(0 -0.7143686712 0.4935844972)
(0 -0.1964574392 0.1192655716)
(0 -0.04825779639 0.02612487644)
(0 -0.01071089505 0.005232463164)
(0 -0.002168494507 0.0009652672176)
(0 -0.0004036516687 0.0001650488873)
(0 -6.954968707e-05 2.630084359e-05)
(0 -1.115617683e-05 3.924915391e-06)
(0 -1.673737104e-06 5.499126123e-07)
(0 -2.373574548e-07 7.223308745e-08)
(0 -3.31754571e-08 8.046812999e-09)
(0 -4.611623824e-09 -1.035262491e-09)
(0 -4.705738596e-10 -1.082319877e-09)
(0 -9.411477192e-11 -1.835238052e-09)
(0 -4.705738596e-11 -3.294017017e-10)
(0 4.705738596e-11 0)
(0 -4.705738596e-11 9.411477192e-11)
(0 4.235164736e-10 9.411477192e-11)
(0 -8.470329473e-10 0)
(0 -7.999755613e-10 4.235164736e-10)
(0 1.364664193e-09 1.035262491e-09)
(0 7.999755613e-10 1.505836351e-09)
(0 -4.705738596e-11 -4.705738596e-11)
(0 9.411477192e-11 0)
(0 0 9.411477192e-11)
(0 -1.411721579e-10 0)
(0 0 -4.705738596e-11)
(0 0 1.411721579e-10)
(0 0 -4.705738596e-11)
(0 4.705738596e-11 0)
(0 0 -4.705738596e-11)
(0 9.411477192e-11 0)
(0 0 9.411477192e-11)
(0 9.411477192e-10 0)
(0 1.788180666e-09 7.999755613e-10)
(0 -1.882295438e-10 7.058607894e-10)
(0 415.777839 3763.665661)
(0 932.2148791 4165.607208)
(0 825.4686526 4757.21704)
(0 27.40556205 5317.444255)
(0 -1497.879013 5522.473992)
(0 -3417.198598 4936.872657)
(0 -5009.410358 3196.212616)
(0 -2882.236831 474.0000981)
(0 -142.7884017 397.2184058)
(0 -120.6159086 233.0527915)
(0 -80.41863716 111.2192672)
(0 -41.68367467 44.56167773)
(0 -17.65395791 15.34324137)
(0 -6.319589783 4.622638904)
(0 -1.958735282 1.236422831)
(0 -0.5352324005 0.2971012471)
(0 -0.1307674473 0.06477446815)
(0 -0.02889069783 0.01292119703)
(0 -0.005825818778 0.002375268802)
(0 -0.00108064054 0.0004048749725)
(0 -0.0001856125885 6.433770512e-05)
(0 -2.968982241e-05 9.577025076e-06)
(0 -4.444946563e-06 1.339912008e-06)
(0 -6.262396923e-07 1.7641814e-07)
(0 -8.484446688e-08 2.17875697e-08)
(0 -1.096437093e-08 2.541098842e-09)
(0 -6.117460175e-10 5.646886315e-10)
(0 -1.882295438e-10 1.882295438e-10)
(0 4.705738596e-11 0)
(0 0 0)
(0 0 0)
(0 7.058607894e-10 -4.705738596e-10)
(0 -3.294017017e-10 2.823443158e-10)
(0 -3.294017017e-10 5.176312455e-10)
(0 1.411721579e-09 1.505836351e-09)
(0 -4.705738596e-11 -9.411477192e-11)
(0 -6.588034034e-10 0)
(0 4.705738596e-11 0)
(0 9.411477192e-11 -1.882295438e-10)
(0 0 9.411477192e-11)
(0 4.705738596e-11 9.411477192e-11)
(0 0 0)
(0 -1.411721579e-10 9.411477192e-11)
(0 -4.705738596e-11 0)
(0 0 0)
(0 4.705738596e-11 0)
(0 9.411477192e-11 -1.882295438e-10)
(0 7.999755613e-10 9.411477192e-11)
(0 7.529181753e-10 -1.035262491e-09)
(0 9.882051051e-10 -6.117460175e-10)
(0 648.4707997 4399.189059)
(0 1522.376728 4941.509262)
(0 1546.386726 5797.683169)
(0 582.6877193 6724.734283)
(0 -1552.207358 7375.455634)
(0 -4637.632908 7191.714897)
(0 -7641.70739 5267.232654)
(0 -4588.003186 1135.871774)
(0 -310.6820591 1010.135131)
(0 -329.1562583 578.0937026)
(0 -216.8469865 270.6919088)
(0 -110.678701 106.9212254)
(0 -46.27089468 36.41691606)
(0 -16.39405492 10.87929296)
(0 -5.039906328 2.890294849)
(0 -1.368105802 0.6906826607)
(0 -0.3324378465 0.1498892609)
(0 -0.0731100944 0.02978224707)
(0 -0.01468481652 0.005456085226)
(0 -0.002714582813 0.000927212192)
(0 -0.0004648476345 0.0001469453462)
(0 -7.415406406e-05 2.181923932e-05)
(0 -1.107424992e-05 3.048189233e-06)
(0 -1.555434835e-06 4.016347892e-07)
(0 -2.070524982e-07 4.969259957e-08)
(0 -2.592861966e-08 6.63509142e-09)
(0 -2.776385772e-09 1.176434649e-09)
(0 -6.588034034e-10 2.352869298e-10)
(0 -2.352869298e-10 -4.705738596e-11)
(0 4.705738596e-11 0)
(0 -4.705738596e-10 -4.705738596e-11)
(0 6.588034034e-10 -4.235164736e-10)
(0 9.411477192e-11 4.705738596e-11)
(0 3.764590877e-10 -1.411721579e-10)
(0 8.470329473e-10 -1.411721579e-10)
(0 -6.588034034e-10 -6.588034034e-10)
(0 0 4.705738596e-11)
(0 -9.411477192e-11 0)
(0 9.411477192e-11 -9.411477192e-11)
(0 1.411721579e-10 0)
(0 -9.411477192e-11 4.705738596e-11)
(0 0 -1.411721579e-10)
(0 0 4.705738596e-11)
(0 -4.705738596e-11 0)
(0 0 4.705738596e-11)
(0 -9.411477192e-11 0)
(0 9.411477192e-11 -9.411477192e-11)
(0 1.411721579e-10 0)
(0 1.129377263e-09 -7.529181753e-10)
(0 1.364664193e-09 -7.999755613e-10)
(0 958.098042 4711.519825)
(0 2330.708989 5398.735822)
(0 2608.693674 6446.404791)
(0 1605.178027 7738.007316)
(0 -1030.8984 8977.361784)
(0 -5525.421578 9626.834247)
(0 -11065.25348 8262.96902)
(0 -7139.334354 2614.570325)
(0 -700.5664733 2408.807514)
(0 -860.0591307 1338.250315)
(0 -551.5911143 613.7907294)
(0 -275.9586674 238.8605484)
(0 -113.6958904 80.46088892)
(0 -39.846211 23.83449401)
(0 -12.14734558 6.28994942)
(0 -3.275637989 1.494974906)
(0 -0.791667861 0.322980558)
(0 -0.1733238735 0.06393095547)
(0 -0.03468085361 0.01167368978)
(0 -0.006389780467 0.001978122958)
(0 -0.001091005588 0.000312690024)
(0 -0.0001735869323 4.632216136e-05)
(0 -2.586250404e-05 6.457967419e-06)
(0 -3.62483044e-06 8.488681853e-07)
(0 -4.797971072e-07 1.061144053e-07)
(0 -5.938642108e-08 1.289372375e-08)
(0 -7.058607894e-09 2.164639754e-09)
(0 -1.411721579e-09 0)
(0 -2.823443158e-10 0)
(0 0 0)
(0 -4.235164736e-10 -4.705738596e-11)
(0 7.999755613e-10 0)
(0 -4.705738596e-11 -2.823443158e-10)
(0 -4.705738596e-10 -3.294017017e-10)
(0 8.940903332e-10 -1.552893737e-09)
(0 1.411721579e-10 -1.411721579e-10)
(0 0 0)
(0 -9.411477192e-11 0)
(0 9.411477192e-11 0)
(0 1.411721579e-10 0)
(0 -9.411477192e-11 0)
(0 0 0)
(0 0 0)
(0 -4.705738596e-11 0)
(0 0 0)
(0 -9.411477192e-11 0)
(0 9.411477192e-11 0)
(0 1.411721579e-10 0)
(0 -4.705738596e-11 0)
(0 2.541098842e-09 -4.705738596e-11)
(0 1335.686797 4112.054066)
(0 3257.261693 4784.769566)
(0 3885.65822 6032.637044)
(0 3113.644713 7638.5323)
(0 336.6195727 9660.477953)
(0 -5352.025672 11660.31699)
(0 -14653.97131 11949.59057)
(0 -10442.16469 5702.948023)
(0 -1587.002069 5348.128817)
(0 -2124.173043 2877.59744)
(0 -1316.236753 1291.872702)
(0 -644.0085415 495.2552923)
(0 -261.296949 165.0108148)
(0 -90.56499442 48.47661133)
(0 -27.37942543 12.71037825)
(0 -7.335074664 3.005255827)
(0 -1.763481797 0.6464830358)
(0 -0.3844169626 0.1275023014)
(0 -0.07663764908 0.02320928744)
(0 -0.01407558257 0.003922141405)
(0 -0.002396648478 0.000618490282)
(0 -0.0003803860736 9.142421882e-05)
(0 -5.654759016e-05 1.271970554e-05)
(0 -7.907193735e-06 1.671196005e-06)
(0 -1.043074017e-06 2.086995067e-07)
(0 -1.298783852e-07 2.470512763e-08)
(0 -1.567010952e-08 2.917557929e-09)
(0 -2.823443158e-09 4.235164736e-10)
(0 -2.352869298e-10 0)
(0 0 0)
(0 -4.705738596e-10 0)
(0 4.705738596e-10 9.411477192e-11)
(0 -2.352869298e-10 -4.705738596e-10)
(0 -9.411477192e-10 -2.823443158e-10)
(0 1.035262491e-09 -1.035262491e-09)
(0 8.940903332e-10 -7.999755613e-10)
(0 1.411721579e-10 0)
(0 -9.411477192e-11 0)
(0 9.411477192e-11 0)
(0 1.411721579e-10 0)
(0 -9.411477192e-11 0)
(0 0 0)
(0 0 0)
(0 -4.705738596e-11 0)
(0 0 0)
(0 -9.411477192e-11 0)
(0 9.411477192e-11 0)
(0 1.411721579e-10 0)
(0 1.129377263e-09 0)
(0 1.364664193e-09 1.223492035e-09)
(0 1630.813542 2567.447186)
(0 4251.291967 2806.825348)
(0 5462.456407 3797.482389)
(0 5233.018936 5680.294439)
(0 2990.886291 8746.730249)
(0 -3236.308966 12811.34716)
(0 -17022.62245 16072.57792)
(0 -13740.7961 11632.38428)
(0 -3525.917056 10982.16017)
(0 -4916.315246 5720.340962)
(0 -2933.933262 2514.156492)
(0 -1402.820554 949.8011365)
(0 -560.4745714 313.123175)
(0 -192.1466475 91.26019897)
(0 -57.61870108 23.78079701)
(0 -15.3395332 5.595068131)
(0 -3.669421386 1.198730364)
(0 -0.7965976219 0.2356160952)
(0 -0.1582610135 0.04276445979)
(0 -0.02898057758 0.007208429952)
(0 -0.004921722821 0.001134155658)
(0 -0.0007793575088 0.0001673119711)
(0 -0.0001156155268 2.323500783e-05)
(0 -1.613578942e-05 3.049224495e-06)
(0 -2.126287985e-06 3.792825308e-07)
(0 -2.652624846e-07 4.484568882e-08)
(0 -3.134021905e-08 4.846910754e-09)
(0 -4.282222122e-09 7.999755613e-10)
(0 -7.058607894e-10 9.411477192e-10)
(0 0 -4.705738596e-11)
(0 -3.294017017e-10 -1.411721579e-10)
(0 3.764590877e-10 -4.705738596e-10)
(0 -4.235164736e-10 -1.223492035e-09)
(0 -1.082319877e-09 -2.823443158e-10)
(0 3.294017017e-10 -2.823443158e-10)
(0 1.176434649e-09 -9.411477192e-10)
(0 8.470329473e-10 -2.352869298e-10)
(0 -9.411477192e-11 1.411721579e-10)
(0 9.411477192e-11 0)
(0 1.411721579e-10 -4.705738596e-11)
(0 -9.411477192e-11 -9.411477192e-11)
(0 0 1.411721579e-10)
(0 0 -9.411477192e-11)
(0 -4.705738596e-11 0)
(0 0 0)
(0 -9.411477192e-11 -9.411477192e-11)
(0 9.411477192e-11 9.411477192e-11)
(0 1.411721579e-10 4.705738596e-11)
(0 1.129377263e-09 0)
(0 1.364664193e-09 3.764590877e-10)
(0 1575.064959 1275.122009)
(0 4487.296896 932.0044845)
(0 6759.127311 931.9522106)
(0 8062.892573 2186.433494)
(0 7467.672292 5788.312965)
(0 1973.822002 12476.04809)
(0 -15832.93419 20432.33433)
(0 -15532.58244 21828.77434)
(0 -7499.045392 20713.46853)
(0 -10592.17672 10459.12839)
(0 -6086.776578 4504.855762)
(0 -2845.041858 1678.372231)
(0 -1119.837887 547.8202275)
(0 -379.9073724 158.4779463)
(0 -113.0445563 41.05949294)
(0 -29.91714131 9.616151562)
(0 -7.122933833 2.052527265)
(0 -1.540382867 0.402169522)
(0 -0.3050453144 0.07279849403)
(0 -0.05570588665 0.01224240539)
(0 -0.009437766412 0.001922220666)
(0 -0.001491306818 0.0002830452826)
(0 -0.0002208102897 3.924068358e-05)
(0 -3.076282492e-05 5.141066473e-06)
(0 -4.047546938e-06 6.391334161e-07)
(0 -5.042669479e-07 7.637413741e-08)
(0 -5.971582278e-08 9.31736242e-09)
(0 -6.776263578e-09 1.552893737e-09)
(0 -1.035262491e-09 1.223492035e-09)
(0 -1.082319877e-09 4.235164736e-10)
(0 -8.940903332e-10 4.705738596e-11)
(0 -6.117460175e-10 -8.940903332e-10)
(0 -4.705738596e-11 -8.470329473e-10)
(0 9.411477192e-11 -4.235164736e-10)
(0 3.764590877e-10 -4.705738596e-11)
(0 8.470329473e-10 -3.294017017e-10)
(0 1.223492035e-09 -5.646886315e-10)
(0 1.411721579e-10 -9.411477192e-11)
(0 -4.705738596e-11 0)
(0 -4.705738596e-11 -4.705738596e-11)
(0 1.411721579e-10 9.411477192e-11)
(0 0 0)
(0 -9.411477192e-11 1.411721579e-10)
(0 0 -9.411477192e-11)
(0 -9.411477192e-11 0)
(0 0 -4.705738596e-11)
(0 2.352869298e-10 -4.705738596e-11)
(0 4.705738596e-11 1.505836351e-09)
(0 1.505836351e-09 1.552893737e-09)
(0 9.411477192e-10 1.223492035e-09)
(0 1287.696018 897.587179)
(0 3908.122169 396.0111699)
(0 6716.885416 -130.0519005)
(0 10089.37969 190.0727169)
(0 13280.50089 2880.69294)
(0 11407.7124 10142.42768)
(0 -7669.896202 24525.54926)
(0 -13459.6619 37172.18973)
(0 -14895.563 35638.40999)
(0 -21124.92802 17492.64587)
(0 -11714.68942 7395.856571)
(0 -5359.856088 2720.603424)
(0 -2080.368856 879.9341213)
(0 -698.9073821 252.8293483)
(0 -206.4804958 65.16220215)
(0 -54.34649888 15.19759488)
(0 -12.88340343 3.232858447)
(0 -2.776326392 0.6316463246)
(0 -0.5481881301 0.1140605899)
(0 -0.09985685099 0.01914108532)
(0 -0.01688108293 0.002999829816)
(0 -0.00266233735 0.0004409870929)
(0 -0.0003935198371 6.104500571e-05)
(0 -5.473748075e-05 7.986014856e-06)
(0 -7.190886206e-06 9.905579744e-07)
(0 -8.950314809e-07 1.178787518e-07)
(0 -1.061614627e-07 1.350546977e-08)
(0 -1.237609251e-08 2.164639754e-09)
(0 -1.788180666e-09 4.705738596e-11)
(0 -1.223492035e-09 9.411477192e-10)
(0 -1.599951123e-09 8.940903332e-10)
(0 -5.646886315e-10 0)
(0 0 -1.882295438e-10)
(0 -2.823443158e-10 9.411477192e-11)
(0 4.705738596e-10 -1.411721579e-10)
(0 7.058607894e-10 -9.411477192e-11)
(0 1.082319877e-09 -5.176312455e-10)
(0 4.235164736e-10 -1.882295438e-10)
(0 1.411721579e-10 4.705738596e-11)
(0 2.352869298e-10 0)
(0 -4.705738596e-11 0)
(0 0 -9.411477192e-11)
(0 -4.705738596e-11 -4.705738596e-11)
(0 -1.882295438e-10 -4.705738596e-11)
(0 4.705738596e-11 4.705738596e-11)
(0 -1.411721579e-10 0)
(0 1.694065895e-09 0)
(0 1.694065895e-09 -9.411477192e-11)
(0 7.529181753e-10 -9.411477192e-11)
(0 -1.317606807e-09 -1.599951123e-09)
(0 1073.48895 1083.807423)
(0 3459.657817 800.3757651)
(0 6553.188858 595.0440169)
(0 11073.63741 1067.674778)
(0 17420.02725 3240.857335)
(0 23618.67833 9862.874768)
(0 11196.82787 27404.61235)
(0 -4419.721718 56955.79414)
(0 -27178.58925 55563.64166)
(0 -38834.73014 26599.91683)
(0 -20858.81902 11062.8283)
(0 -9360.964308 4023.689254)
(0 -3587.611962 1290.873569)
(0 -1194.679292 368.6695936)
(0 -350.6763097 94.57706975)
(0 -91.84648501 21.9767001)
(0 -21.68888239 4.660884725)
(0 -4.659180724 0.9083765003)
(0 -0.9175505536 0.1636812814)
(0 -0.1667666467 0.02741726699)
(0 -0.0281378646 0.004289862548)
(0 -0.004430091628 0.0006297037277)
(0 -0.0006538114147 8.705399938e-05)
(0 -9.08172256e-05 1.137466428e-05)
(0 -1.19157301e-05 1.408521677e-06)
(0 -1.48136651e-06 1.66300802e-07)
(0 -1.753828775e-07 1.882295438e-08)
(0 -2.023467596e-08 2.305811912e-09)
(0 -2.258754526e-09 2.352869298e-10)
(0 -2.823443158e-10 5.176312455e-10)