/*--------------------------------*- C++ -*----------------------------------*\
  =========                 |
  \\      /  F ield         | OpenFOAM: The Open Source CFD Toolbox
   \\    /   O peration     | Website:  https://openfoam.org
    \\  /    A nd           | Version:  6
     \\/     M anipulation  |
\*---------------------------------------------------------------------------*/
FoamFile
{
    version     2.0;
    format      ascii;
    class       volVectorField;
    location    "0.03";
    object      Marangoni;
}
// * * * * * * * * * * * * * * * * * * * * * * * * * * * * * * * * * * * * * //

dimensions      [1 -2 -2 0 0 0 0];

internalField   nonuniform List<vector> 
2500
(
(-0 5.041357461e-37 -1.440995956e-34)
(-0 1.583464499e-32 -1.171330942e-30)
(-0 5.656251157e-29 -1.825019731e-27)
(-0 1.520933527e-26 -2.563449801e-25)
(-0 7.986958476e-25 -7.579495933e-24)
(-0 1.217339175e-22 -6.406524582e-22)
(-0 2.566405362e-14 -6.142783949e-14)
(-0 1.944973623e-08 -0.02554611088)
(-0 5.180703112e-10 -0.002932877893)
(-0 4.455897989e-18 -4.066344102e-18)
(-0 0 -0)
(-0 2.016262274e-20 -1.958763365e-20)
(-0 2.945161778e-20 -3.201193415e-20)
(-0 3.969425186e-21 -4.924106264e-21)
(-0 9.086642042e-22 -1.246553594e-21)
(-0 2.913269619e-22 -4.164531551e-22)
(-0 4.58636717e-23 -6.56156882e-23)
(-0 8.605695203e-24 -1.183554051e-23)
(-0 4.967342746e-24 -6.665042165e-24)
(-0 3.459996208e-25 -9.947489099e-25)
(-0 7.739478425e-39 -9.583158937e-25)
(-0 6.806701669e-25 6.283109233e-25)
(-0 2.868942501e-24 2.950912286e-24)
(-0 2.547845567e-24 5.588822535e-24)
(-0 -1.037998862e-26 2.352797422e-25)
(-0 -0 0)
(-0 -0 0)
(-0 0 0)
(-0 -0 0)
(-0 0 0)
(-0 -0 0)
(-0 -0 0)
(-0 -0 0)
(-0 0 0)
(-0 0 0)
(-0 -0 0)
(-0 -0 0)
(-0 0 0)
(-0 -0 0)
(-0 -0 0)
(-0 -0 0)
(-0 0 0)
(-0 0 0)
(-0 -0 0)
(-0 -0 0)
(-0 0 0)
(-0 -0 0)
(-0 0 0)
(-0 -0 0)
(-0 0 0)
(-0 9.876960072e-37 -1.301705098e-34)
(-0 8.601305116e-33 -2.808307193e-31)
(-0 1.459332134e-28 -2.008196927e-27)
(-0 1.375330096e-24 -9.713809292e-24)
(-0 3.115492958e-22 -1.229035762e-21)
(-0 4.480714015e-21 -9.769599173e-21)
(-0 2.014033476e-13 -1.994370991e-13)
(-0 6.630394619e-08 -0.03618229862)
(-0 1.76824806e-09 -0.004345177068)
(-0 8.694848038e-18 -3.61685114e-18)
(-0 3.812116943e-19 -1.741452525e-19)
(-0 4.086524554e-19 -2.237524015e-19)
(-0 8.016792609e-20 -5.511250872e-20)
(-0 2.286460994e-20 -1.907462113e-20)
(-0 1.01488224e-20 -9.432840709e-21)
(-0 1.904983952e-21 -1.817167519e-21)
(-0 7.394325847e-22 -6.866647313e-22)
(-0 2.021153396e-22 -1.761228723e-22)
(-0 4.009699724e-23 -3.124675911e-23)
(-0 7.888791355e-24 -5.719373732e-24)
(-0 3.79344247e-24 2.601217694e-24)
(-0 4.504468922e-24 2.636762296e-24)
(-0 2.230671389e-24 2.549338731e-24)
(-0 -4.968210189e-37 -1.27763376e-24)
(-0 -6.353239912e-25 -3.529577729e-25)
(-0 -0 -0)
(-0 0 0)
(-0 0 0)
(-0 0 0)
(-0 -0 0)
(-0 -0 0)
(-0 0 0)
(-0 -0 0)
(-0 -0 0)
(-0 0 0)
(-0 -0 0)
(-0 0 0)
(-0 -0 0)
(-0 -0 0)
(-0 -0 0)
(-0 -0 0)
(-0 0 0)
(-0 -0 -0)
(-0 0 0)
(-0 -0 0)
(-0 -0 0)
(-0 -0 0)
(-0 -0 0)
(-0 -0 0)
(-0 -0 0)
(-0 1.743956585e-35 -2.583765194e-33)
(-0 1.392793832e-31 -4.372526089e-30)
(-0 8.322903002e-28 -9.954021907e-27)
(-0 8.433372092e-24 -4.938592989e-23)
(-0 6.889894614e-21 -2.204006974e-20)
(-0 5.049762433e-20 -8.833545908e-20)
(-0 2.376085945e-10 -1.878581369e-10)
(-0 1.401764346e-07 -0.0615014697)
(-0 3.746430351e-09 -0.007919138694)
(-0 4.01618686e-13 -1.553412439e-13)
(-0 8.705561208e-19 -4.172067234e-19)
(-0 1.07726396e-18 -6.892390591e-19)
(-0 3.764116865e-19 -3.111742988e-19)
(-0 1.000441602e-19 -9.569990252e-20)
(-0 2.086001952e-20 -2.071507241e-20)
(-0 8.854676892e-21 -8.527018256e-21)
(-0 3.37149735e-21 -3.044908718e-21)
(-0 7.532807667e-22 -6.294854413e-22)
(-0 1.616662085e-22 -1.241097833e-22)
(-0 3.816956981e-23 -2.541263136e-23)
(-0 9.290466094e-24 -4.078741212e-24)
(-0 1.821126037e-24 -1.94253444e-24)
(-0 2.274404762e-25 -3.297886905e-24)
(-0 3.180939192e-25 -4.771408788e-24)
(-0 -1.33948393e-36 -4.076157493e-24)
(-0 1.349398521e-25 -6.746992606e-25)
(-0 0 0)
(-0 0 -0)
(-0 0 -0)
(-0 0 0)
(-0 0 0)
(-0 -0 0)
(-0 -0 0)
(-0 -0 0)
(-0 -0 0)
(-0 0 -0)
(-0 -0 -0)
(-0 0 -0)
(-0 -0 -0)
(-0 -0 -0)
(-0 0 -0)
(-0 0 -0)
(-0 -0 -0)
(-0 0 -0)
(-0 -0 0)
(-0 0 -0)
(-0 -0 0)
(-0 -0 -0)
(-0 0 -0)
(-0 -0 -0)
(-0 1.078841627e-34 -3.746524855e-32)
(-0 1.397690534e-30 -5.841605555e-29)
(-0 1.192348936e-26 -1.525944468e-25)
(-0 4.780258823e-23 -2.759827989e-22)
(-0 2.053106709e-20 -6.245155626e-20)
(-0 2.678077722e-19 -4.378544041e-19)
(-0 1.156307797e-09 -8.477932463e-10)
(-0 2.694644323e-07 -0.110972939)
(-0 7.226369705e-09 -0.01578485614)
(-0 2.056338139e-12 -9.147338947e-13)
(-0 5.68321555e-18 -3.510944863e-18)
(-0 2.250130332e-18 -1.909108107e-18)
(-0 3.070013894e-19 -3.139991798e-19)
(-0 3.299731479e-19 -3.540136744e-19)
(-0 1.159697803e-19 -1.197999823e-19)
(-0 5.286742726e-20 -5.060784214e-20)
(-0 1.320803282e-20 -1.156522616e-20)
(-0 3.59400961e-21 -2.875190555e-21)
(-0 9.076569342e-22 -6.670022648e-22)
(-0 1.534383157e-22 -1.046040777e-22)
(-0 1.546959865e-23 -1.144405253e-23)
(-0 6.661054365e-24 -9.192255023e-24)
(-0 9.258577469e-25 -2.571827075e-24)
(-0 2.844150557e-25 -3.555188196e-24)
(-0 8.648692925e-25 -2.767581736e-24)
(-0 3.274626398e-24 -2.10511697e-24)
(-0 3.459996208e-25 -2.075997725e-25)
(-0 0 -0)
(-0 0 0)
(-0 0 0)
(-0 0 0)
(-0 -0 -0)
(-0 -0 -0)
(-0 -0 0)
(-0 -0 0)
(-0 -0 0)
(-0 0 -0)
(-0 -0 0)
(-0 -0 -0)
(-0 -0 0)
(-0 0 -0)
(-0 0 -0)
(-0 0 -0)
(-0 0 -0)
(-0 0 -0)
(-0 -0 -0)
(-0 -0 -0)
(-0 -0 0)
(-0 -0 0)
(-0 0 -0)
(-0 -4.032036653e-33 -1.457619753e-30)
(-0 7.836970245e-29 -6.923245173e-27)
(-0 8.189413384e-25 -1.248594533e-23)
(-0 1.337998447e-22 -8.077321993e-22)
(-0 7.293490922e-22 -2.207657044e-21)
(-0 9.698956977e-19 -1.543211565e-18)
(-0 4.090782814e-09 -2.890768984e-09)
(-0 5.009540265e-07 -0.203595091)
(-0 1.350077653e-08 -0.03365337542)
(-0 7.823066418e-12 -4.507712836e-12)
(-0 9.536607179e-18 -8.095510043e-18)
(-0 4.953406934e-18 -5.403592876e-18)
(-0 2.23371851e-18 -2.615392585e-18)
(-0 1.652554689e-18 -1.854784449e-18)
(-0 8.931401291e-19 -9.164224645e-19)
(-0 1.737452129e-19 -1.608010271e-19)
(-0 4.52317808e-20 -3.777293977e-20)
(-0 1.728463504e-20 -1.309489553e-20)
(-0 2.985111729e-21 -2.066569235e-21)
(-0 3.862946592e-22 -2.469966158e-22)
(-0 1.298241558e-22 -7.978411731e-23)
(-0 1.986359761e-23 -1.306536099e-23)
(-0 6.027212593e-24 -4.018141729e-24)
(-0 1.5034868e-24 -3.257554733e-24)
(-0 1.086192229e-24 -2.01721414e-24)
(-0 1.157439843e-24 -1.446799804e-24)
(-0 8.811534377e-25 -8.811534377e-25)
(-0 0 -0)
(-0 0 0)
(-0 -0 0)
(-0 0 -0)
(-0 -0 -0)
(-0 -0 -0)
(-0 -0 -0)
(-0 -0 0)
(-0 -0 0)
(-0 -0 -0)
(-0 -0 0)
(-0 -0 -0)
(-0 -0 0)
(-0 0 0)
(-0 -0 0)
(-0 -0 -0)
(-0 0 -0)
(-0 -0 -0)
(-0 -0 -0)
(-0 -0 -0)
(-0 0 0)
(-0 -0 0)
(-0 -0 0)
(-0 -6.343853855e-31 -6.406287707e-29)
(-0 -9.012450411e-28 -1.937577721e-25)
(-0 5.598695262e-24 -1.14014931e-22)
(-0 6.503543958e-22 -4.223786263e-21)
(-0 4.490734749e-21 -1.370736055e-20)
(-0 3.668688723e-18 -5.732376881e-18)
(-0 1.335360485e-08 -9.168709156e-09)
(-0 9.129927042e-07 -0.377722114)
(-0 2.480569267e-08 -0.0777979293)
(-0 2.860300977e-11 -2.297690967e-11)
(-0 1.033360633e-17 -1.177714361e-17)
(-0 5.117450843e-18 -6.580410563e-18)
(-0 7.961001133e-18 -9.844928455e-18)
(-0 4.778736044e-18 -5.326868205e-18)
(-0 2.060709841e-18 -2.037814111e-18)
(-0 1.009904411e-18 -8.879210283e-19)
(-0 2.853172619e-19 -2.247655046e-19)
(-0 6.300770841e-20 -4.486700824e-20)
(-0 1.015080285e-20 -6.588383258e-21)
(-0 3.163040819e-21 -1.887808174e-21)
(-0 6.988926185e-22 -3.881838196e-22)
(-0 7.810838191e-23 -4.17169767e-23)
(-0 1.54652561e-23 -1.401990506e-23)
(-0 2.39612794e-24 -4.540031885e-24)
(-0 3.555327938e-24 -6.941354547e-24)
(-0 4.908382377e-24 -3.209326939e-24)
(-0 1.227835609e-24 -1.754050871e-25)
(-0 5.951193478e-25 -2.767996967e-26)
(-0 0 -0)
(-0 0 0)
(-0 -0 -0)
(-0 -0 -0)
(-0 -0 -0)
(-0 0 -0)
(-0 -0 -0)
(-0 -0 0)
(-0 -0 -0)
(-0 -0 -0)
(-0 -0 0)
(-0 -0 -0)
(-0 -0 0)
(-0 0 -0)
(-0 -0 0)
(-0 0 -0)
(-0 -0 -0)
(-0 -0 -0)
(-0 -0 0)
(-0 -0 -0)
(-0 -0 -0)
(-0 -0 -0)
(-0 -5.923265567e-29 -3.16566173e-27)
(-0 -1.302868621e-25 -5.405636958e-24)
(-0 3.702858483e-23 -1.268298521e-21)
(-0 3.59514351e-21 -2.572379913e-20)
(-0 2.146711823e-20 -6.631981932e-20)
(-0 1.214695026e-17 -1.862812323e-17)
(-0 3.669401691e-08 -2.446315063e-08)
(-0 1.634453249e-06 -0.7167476828)
(-0 4.50698649e-08 -0.1968366115)
(-0 9.356163301e-11 -1.06178162e-10)
(-0 1.128877221e-16 -1.593579648e-16)
(-0 8.65972731e-17 -1.200624297e-16)
(-0 3.775996056e-17 -4.655739409e-17)
(-0 9.860170979e-18 -1.057182947e-17)
(-0 5.959850546e-18 -5.578983019e-18)
(-0 4.402277611e-18 -3.63733658e-18)
(-0 1.07877795e-18 -7.958959308e-19)
(-0 2.315417235e-19 -1.541528077e-19)
(-0 7.166613386e-20 -4.345520575e-20)
(-0 1.17921804e-20 -6.564264972e-21)
(-0 1.997679767e-21 -1.029154468e-21)
(-0 1.766155064e-22 -8.596706579e-23)
(-0 6.405164194e-23 -3.111079752e-23)
(-0 9.899467583e-24 -5.699693457e-24)
(-0 3.036146673e-24 -2.923696796e-24)
(-0 7.870698576e-24 -1.84207839e-24)
(-0 4.292661834e-24 -7.15443639e-25)
(-0 9.687989383e-25 1.383998483e-25)
(-0 0 -0)
(-0 0 -0)
(-0 -0 0)
(-0 -0 0)
(-0 -0 -0)
(-0 0 0)
(-0 -0 -0)
(-0 -0 0)
(-0 -0 -0)
(-0 0 -0)
(-0 -0 0)
(-0 -0 0)
(-0 0 0)
(-0 0 -0)
(-0 -0 -0)
(-0 0 -0)
(-0 -0 -0)
(-0 0 -0)
(-0 -0 0)
(-0 -0 0)
(-0 -0 -0)
(-0 -0 -0)
(-0 -5.454716376e-27 -1.841148913e-25)
(-0 -4.107115819e-24 -8.58266254e-23)
(-0 4.77140309e-23 -9.089592589e-21)
(-0 1.584644388e-20 -1.287847107e-19)
(-0 1.710180577e-19 -5.34965361e-19)
(-0 3.942475407e-17 -5.910206184e-17)
(-0 8.778686074e-08 -5.66747129e-08)
(-0 2.869883152e-06 -1.419635796)
(-0 8.153288358e-08 -0.5372382137)
(-0 2.933570511e-10 -4.464591069e-10)
(-0 2.404370472e-15 -3.814032022e-15)
(-0 1.16450278e-15 -1.6278509e-15)
(-0 4.38528632e-16 -5.200704877e-16)
(-0 7.264853603e-17 -7.349931044e-17)
(-0 3.944147211e-17 -3.456231963e-17)
(-0 2.138178646e-17 -1.648120483e-17)
(-0 5.614478015e-18 -3.858505665e-18)
(-0 1.599969023e-18 -9.916113011e-19)
(-0 3.149859601e-19 -1.777472561e-19)
(-0 5.270628035e-20 -2.72982541e-20)
(-0 4.543849533e-21 -2.17471795e-21)
(-0 5.618595186e-22 -2.485515258e-22)
(-0 1.960364955e-22 -7.83533846e-23)
(-0 2.576431121e-23 -9.252376954e-24)
(-0 5.782464253e-24 -4.81872021e-25)
(-0 7.4822048e-24 -3.253132522e-25)
(-0 4.113935492e-24 -1.418598445e-24)
(-0 1.453198407e-24 -5.81279363e-25)
(-0 0 -0)
(-0 0 -0)
(-0 0 -0)
(-0 -0 -0)
(-0 -0 -0)
(-0 0 0)
(-0 -0 0)
(-0 -0 -0)
(-0 -0 -0)
(-0 0 -0)
(-0 -0 -0)
(-0 -0 -0)
(-0 -0 0)
(-0 -0 -0)
(-0 -0 -0)
(-0 0 -0)
(-0 -0 -0)
(-0 0 -0)
(-0 -0 -0)
(-0 -0 0)
(-0 -0 -0)
(-0 0 0)
(-0 -1.154498304e-23 -2.664806786e-22)
(-0 -4.197370738e-21 -5.426170455e-20)
(-0 -6.05306287e-20 -2.507424996e-18)
(-0 4.702470219e-18 -4.557561298e-17)
(-0 1.182354749e-16 -3.741914463e-16)
(-0 2.269378004e-15 -3.310774976e-15)
(-0 1.587141736e-07 -9.916020468e-08)
(-0 4.929093584e-06 -2.995273503)
(-0 1.492522912e-07 -1.5296627)
(-0 7.805771837e-10 -1.446797836e-09)
(-0 1.014950392e-14 -1.665609741e-14)
(-0 4.936486977e-15 -6.661268198e-15)
(-0 9.415418853e-16 -1.050866198e-15)
(-0 7.981413827e-16 -7.528242478e-16)
(-0 2.971301319e-16 -2.418756139e-16)
(-0 6.878872994e-17 -4.918892563e-17)
(-0 2.44127787e-17 -1.555735244e-17)
(-0 6.624109049e-18 -3.806578065e-18)
(-0 1.773439199e-18 -9.279821154e-19)
(-0 2.170772332e-19 -1.042777768e-19)
(-0 1.992775572e-20 -8.84826534e-21)
(-0 2.518477283e-21 -1.038100225e-21)
(-0 3.782683869e-22 -1.45573213e-22)
(-0 9.559876655e-23 -3.075205078e-23)
(-0 1.416868447e-23 3.113996587e-25)
(-0 6.185560985e-24 1.508673411e-24)
(-0 2.837196891e-24 -8.511590672e-25)
(-0 2.22650756e-24 -1.619278225e-24)
(-0 0 -0)
(-0 0 -0)
(-0 0 -0)
(-0 -0 -0)
(-0 -0 -0)
(-0 0 -0)
(-0 -0 -0)
(-0 -0 -0)
(-0 -0 -0)
(-0 0 -0)
(-0 -0 -0)
(-0 -0 -0)
(-0 0 -0)
(-0 -0 -0)
(-0 -0 0)
(-0 -0 -0)
(-0 -0 -0)
(-0 -0 -0)
(-0 0 0)
(-0 0 -0)
(-0 0 0)
(-0 -0 0)
(-0 -2.247074283e-20 -3.70026455e-19)
(-0 -1.180992866e-17 -1.02959203e-16)
(-0 -2.878242196e-16 -4.707657585e-15)
(-0 2.953043004e-15 -3.751329854e-14)
(-0 2.637478271e-14 -8.466034215e-14)
(-0 1.115568648e-13 -1.585192592e-13)
(-0 1.612006925e-07 -9.827667672e-08)
(-0 8.267384232e-06 -6.776684603)
(-0 2.806133569e-07 -4.382702581)
(-0 1.30823462e-09 -2.657551116e-09)
(-0 2.535208373e-14 -4.06114832e-14)
(-0 8.254491516e-15 -1.046554161e-14)
(-0 9.314443754e-15 -9.649106628e-15)
(-0 3.008311223e-15 -2.623203612e-15)
(-0 4.553943152e-16 -3.423012544e-16)
(-0 4.745764167e-17 -3.132849157e-17)
(-0 5.156895675e-17 -3.034244989e-17)
(-0 1.348536445e-17 -7.156887774e-18)
(-0 4.814833337e-18 -2.327455868e-18)
(-0 8.536841584e-19 -3.78937901e-19)
(-0 8.437810148e-20 -3.463094931e-20)
(-0 9.762507668e-21 -3.725432949e-21)
(-0 1.102695702e-21 -3.926014666e-22)
(-0 2.612256057e-22 -8.316449074e-23)
(-0 4.339273213e-23 -4.501320761e-24)
(-0 6.179553228e-24 6.504792871e-24)
(-0 -5.99129091e-25 4.643250455e-24)
(-0 9.203589914e-25 1.453198407e-24)
(-0 0 0)
(-0 0 -0)
(-0 0 -0)
(-0 -0 -0)
(-0 0 0)
(-0 0 -0)
(-0 -0 -0)
(-0 -0 -0)
(-0 -0 -0)
(-0 0 -0)
(-0 -0 -0)
(-0 -0 0)
(-0 0 0)
(-0 -0 -0)
(-0 -0 0)
(-0 0 0)
(-0 -0 -0)
(-0 0 0)
(-0 -0 0)
(-0 -0 -0)
(-0 -0 -0)
(-0 -0 -0)
(-0 -4.354764918e-17 -5.260644889e-16)
(-0 -1.036490049e-14 -6.382759303e-14)
(-0 -1.008187096e-13 -9.246810645e-13)
(-0 1.321330298e-13 -2.905050829e-12)
(-0 1.037039103e-12 -3.453112772e-12)
(-0 9.850195976e-13 -1.386662591e-12)
(-0 6.471530505e-08 -3.954785678e-08)
(-0 1.356642292e-05 -16.17590241)
(-0 5.411113748e-07 -12.28255736)
(-0 1.002952657e-09 -2.047789405e-09)
(-0 2.513784097e-14 -3.785734959e-14)
(-0 7.206583978e-14 -8.437479111e-14)
(-0 2.463666971e-14 -2.345811444e-14)
(-0 5.674643978e-15 -4.54382418e-15)
(-0 1.334386411e-15 -9.211767137e-16)
(-0 2.897520825e-16 -1.757494247e-16)
(-0 5.652484231e-17 -3.057360331e-17)
(-0 3.388847772e-17 -1.654068633e-17)
(-0 1.097157579e-17 -4.879555721e-18)
(-0 2.162266477e-18 -8.83360986e-19)
(-0 2.393977523e-19 -9.045266813e-20)
(-0 3.375894615e-20 -1.186667834e-20)
(-0 4.590622066e-21 -1.506889576e-21)
(-0 7.046197999e-22 -2.14307013e-22)
(-0 9.298253064e-23 -2.247189959e-23)
(-0 1.563875849e-23 3.546934915e-24)
(-0 1.450828024e-24 3.191821654e-24)
(-0 4.843994691e-26 1.88915793e-24)
(-0 0 0)
(-0 -0 0)
(-0 0 -0)
(-0 -0 -0)
(-0 0 -0)
(-0 0 -0)
(-0 -0 -0)
(-0 -0 -0)
(-0 0 0)
(-0 -0 -0)
(-0 -0 -0)
(-0 0 0)
(-0 -0 0)
(-0 0 -0)
(-0 -0 0)
(-0 -0 -0)
(-0 -0 0)
(-0 -0 -0)
(-0 -0 -0)
(-0 -0 0)
(-0 -0 -0)
(-0 0 -0)
(-0 -1.629442749e-14 -1.474844358e-13)
(-0 -8.613897007e-13 -3.845381528e-12)
(-0 -3.167778782e-12 -1.819404755e-11)
(-0 -1.889626452e-13 -3.084259039e-11)
(-0 8.010233533e-12 -2.968361599e-11)
(-0 3.847820484e-12 -5.573373365e-12)
(-0 4.393288534e-08 -2.807866172e-08)
(-0 2.205074975e-05 -39.39286262)
(-0 1.094559418e-06 -33.01495363)
(-0 9.668865385e-10 -1.867055978e-09)
(-0 3.464960679e-13 -4.78829013e-13)
(-0 2.07786256e-13 -2.219447533e-13)
(-0 3.634501062e-14 -3.156029419e-14)
(-0 1.860882858e-14 -1.359991042e-14)
(-0 2.378457029e-15 -1.500030511e-15)
(-0 8.248145316e-16 -4.574367321e-16)
(-0 3.191988433e-16 -1.579713201e-16)
(-0 4.554712121e-17 -2.035256093e-17)
(-0 2.218780634e-17 -9.038257074e-18)
(-0 5.085970114e-18 -1.903835664e-18)
(-0 5.46858353e-19 -1.89387155e-19)
(-0 9.037032272e-20 -2.912531323e-20)
(-0 1.132938078e-20 -3.412384623e-21)
(-0 1.507338299e-21 -4.242168087e-22)
(-0 1.686970518e-22 -4.331926556e-23)
(-0 3.790003414e-23 -8.681946147e-24)
(-0 1.906216135e-24 -1.759584125e-24)
(-0 1.107198787e-25 -1.107198787e-25)
(-0 -0 -0)
(-0 -0 -0)
(-0 -0 -0)
(-0 -0 0)
(-0 0 -0)
(-0 0 -0)
(-0 -0 -0)
(-0 0 0)
(-0 0 -0)
(-0 -0 -0)
(-0 -0 0)
(-0 -0 -0)
(-0 -0 -0)
(-0 -0 -0)
(-0 0 -0)
(-0 0 -0)
(-0 0 -0)
(-0 -0 -0)
(-0 -0 0)
(-0 -0 -0)
(-0 -0 0)
(-0 -0 0)
(-0 -7.648328495e-13 -5.190402291e-12)
(-0 -1.08317505e-11 -3.515152887e-11)
(-0 -1.919973478e-11 -7.186529867e-11)
(-0 -7.295095709e-12 -8.335176439e-11)
(-0 1.781498817e-11 -8.519199344e-11)
(-0 2.137036388e-11 -3.323239458e-11)
(-0 2.672744015e-06 -1.858786139e-06)
(-0 4.046694304e-05 -94.43900604)
(-0 2.372731647e-06 -83.98820074)
(-0 4.542425472e-10 -7.97164382e-10)
(-0 1.106406363e-12 -1.379967929e-12)
(-0 8.953059907e-14 -8.64151848e-14)
(-0 1.014393819e-13 -7.97652195e-14)
(-0 6.216780912e-14 -4.12180879e-14)
(-0 1.538131041e-14 -8.812906786e-15)
(-0 3.996909228e-15 -2.0159913e-15)
(-0 8.558502778e-16 -3.855347161e-16)
(-0 3.277900215e-16 -1.334080933e-16)
(-0 2.457725548e-17 -9.123331142e-18)
(-0 6.890610212e-18 -2.351486839e-18)
(-0 1.293360359e-18 -4.084843536e-19)
(-0 1.598639747e-19 -4.699667856e-20)
(-0 3.333905498e-20 -9.168535756e-21)
(-0 4.252410772e-21 -1.096837934e-21)
(-0 6.024401501e-22 -1.443564544e-22)
(-0 8.957112256e-23 -2.305627044e-23)
(-0 6.579279001e-24 -2.937178126e-24)
(-0 0 -0)
(-0 0 0)
(-0 -0 -0)
(-0 0 0)
(-0 -0 0)
(-0 -0 -0)
(-0 -0 0)
(-0 -0 0)
(-0 0 0)
(-0 -0 -0)
(-0 0 -0)
(-0 -0 0)
(-0 -0 -0)
(-0 0 -0)
(-0 0 0)
(-0 -0 -0)
(-0 0 -0)
(-0 -0 -0)
(-0 0 -0)
(-0 -0 0)
(-0 -0 -0)
(-0 -0 0)
(-0 -0 0)
(-0 -6.258138385e-12 -3.080791213e-11)
(-0 -3.716827296e-11 -8.615942977e-11)
(-0 -3.581191379e-11 -8.847428645e-11)
(-0 -1.536710783e-11 -7.382506177e-11)
(-0 1.478568872e-11 -1.302017775e-10)
(-0 7.337569606e-11 -1.282405183e-10)
(-0 3.716655274e-05 -4.082057627e-05)
(-0 7.483970982e-05 -217.4548336)
(-0 5.339070408e-06 -200.3420376)
(-0 2.766803848e-12 -4.301481842e-12)
(-0 2.102185553e-12 -2.337182259e-12)
(-0 9.150187921e-13 -7.912991508e-13)
(-0 2.663842704e-13 -1.883447882e-13)
(-0 9.706226227e-14 -5.800574474e-14)
(-0 3.113563405e-14 -1.610732302e-14)
(-0 5.000358356e-15 -2.280018036e-15)
(-0 4.041806498e-15 -1.647434167e-15)
(-0 6.304449492e-16 -2.32327045e-16)
(-0 8.191109886e-17 -2.754621538e-17)
(-0 8.687312549e-18 -2.686921374e-18)
(-0 2.583321876e-18 -7.397229676e-19)
(-0 3.956568338e-19 -1.054864994e-19)
(-0 7.290132388e-20 -1.818709669e-20)
(-0 1.226313446e-20 -2.869249665e-21)
(-0 1.452386962e-21 -3.209116794e-22)
(-0 1.358100925e-22 -2.944749578e-23)
(-0 7.829971419e-24 -2.413347355e-24)
(-0 0 -0)
(-0 0 -0)
(-0 -0 -0)
(-0 0 0)
(-0 -0 -0)
(-0 0 0)
(-0 0 0)
(-0 -0 0)
(-0 -0 0)
(-0 -0 -0)
(-0 0 -0)
(-0 -0 -0)
(-0 -0 -0)
(-0 0 -0)
(-0 0 -0)
(-0 -0 -0)
(-0 0 -0)
(-0 -0 -0)
(-0 0 -0)
(-0 -0 -0)
(-0 -0 -0)
(-0 0 -0)
(-0 -0 -0)
(-0 -1.355591566e-11 -4.18350811e-11)
(-0 -4.639338452e-11 -6.831827058e-11)
(-0 -1.739450669e-11 -2.705538743e-11)
(-0 -7.379221095e-12 -1.810469259e-11)
(-0 -1.076754841e-12 -3.013481531e-11)
(-0 3.275444323e-10 -7.159052477e-10)
(-0 6.412415037e-05 -9.824086183e-05)
(-0 6.2525112e-05 -474.434705)
(-0 1.209310449e-05 -444.9184513)
(-0 4.762518127e-11 -6.446061302e-11)
(-0 2.227431645e-12 -2.184250108e-12)
(-0 3.435744715e-13 -2.639756928e-13)
(-0 1.758292152e-13 -1.109352008e-13)
(-0 1.794690911e-13 -9.597502636e-14)
(-0 3.699223026e-14 -1.715691554e-14)
(-0 3.198708267e-14 -1.309317808e-14)
(-0 8.089470581e-15 -2.962781349e-15)
(-0 1.065102924e-15 -3.529399738e-16)
(-0 2.390104725e-16 -7.231547858e-17)
(-0 6.170792877e-18 -1.717883859e-18)
(-0 4.128390226e-18 -1.064404771e-18)
(-0 5.65025759e-19 -1.356762278e-19)
(-0 6.672018275e-20 -1.499408773e-20)
(-0 5.308158656e-21 -1.120855481e-21)
(-0 1.012218701e-21 -2.02350577e-22)
(-0 1.730188404e-22 -3.283709401e-23)
(-0 1.65519391e-23 -3.11626014e-24)
(-0 0 -0)
(-0 0 -0)
(-0 -0 -0)
(-0 0 -0)
(-0 -0 -0)
(-0 0 0)
(-0 0 0)
(-0 -0 0)
(-0 -0 0)
(-0 -0 -0)
(-0 0 -0)
(-0 -0 -0)
(-0 -0 -0)
(-0 0 -0)
(-0 0 -0)
(-0 -0 -0)
(-0 0 -0)
(-0 -0 -0)
(-0 0 -0)
(-0 -0 -0)
(-0 -0 -0)
(-0 -0 -0)
(-0 -0 -0)
(-0 -1.334343057e-11 -2.112129049e-11)
(-0 -3.927191582e-11 -2.610025333e-11)
(-0 -2.431292159e-11 -1.700973555e-11)
(-0 -5.643377164e-11 -6.154327438e-11)
(-0 -2.604921416e-11 -7.635743746e-11)
(-0 1.482044018e-10 -5.881480711e-10)
(-0 2.962982116e-05 -3.169867726e-05)
(-0 1.411509826e-05 -967.9050659)
(-0 2.687601368e-05 -913.8119629)
(-0 1.307031954e-10 -1.519448511e-10)
(-0 5.996473704e-12 -5.133922891e-12)
(-0 1.501571129e-12 -1.015733827e-12)
(-0 2.698918835e-13 -1.506420631e-13)
(-0 5.366127708e-13 -2.546257776e-13)
(-0 5.986057349e-14 -2.468276812e-14)
(-0 8.997095223e-14 -3.278567728e-14)
(-0 1.004943075e-14 -3.279846376e-15)
(-0 3.240819161e-15 -9.576550284e-16)
(-0 4.24236202e-16 -1.145264699e-16)
(-0 7.657157781e-18 -1.90279277e-18)
(-0 1.42709913e-18 -3.285499327e-19)
(-0 6.263670968e-19 -1.343422612e-19)
(-0 1.964722067e-19 -3.94478916e-20)
(-0 4.491356945e-20 -8.479568797e-21)
(-0 8.606346005e-21 -1.5336427e-21)
(-0 1.011394292e-21 -1.708262921e-22)
(-0 1.060821081e-22 -1.64329646e-23)
(-0 5.615995937e-24 -9.359993228e-25)
(-0 0 -0)
(-0 -0 0)
(-0 0 0)
(-0 -0 0)
(-0 0 0)
(-0 0 0)
(-0 -0 0)
(-0 -0 0)
(-0 -0 0)
(-0 0 -0)
(-0 -0 -0)
(-0 -0 0)
(-0 0 0)
(-0 -0 -0)
(-0 -0 0)
(-0 0 -0)
(-0 -0 0)
(-0 0 0)
(-0 -0 -0)
(-0 -0 -0)
(-0 -0 -0)
(-0 -0 -0)
(-0 -1.519559679e-11 -1.237575963e-11)
(-0 -5.370655767e-11 -1.130007844e-11)
(-0 -4.890858206e-11 -6.87541158e-12)
(-0 -5.858583843e-11 -1.606926463e-11)
(-0 -2.887355507e-11 -2.252721132e-11)
(-0 -3.316394259e-11 -2.110578856e-10)
(-0 6.78972233e-06 -8.859293676e-06)
(-0 8.019487905e-05 -1816.646642)
(-0 5.682148966e-05 -1723.845283)
(-0 4.103661505e-10 -4.048615441e-10)
(-0 5.806737484e-12 -4.293776836e-12)
(-0 1.027159375e-12 -6.053975493e-13)
(-0 1.911592183e-12 -9.34272078e-13)
(-0 5.565479445e-13 -2.319441601e-13)
(-0 6.953520961e-13 -2.523219202e-13)
(-0 3.46942276e-14 -1.114096375e-14)
(-0 3.285738721e-14 -9.459028599e-15)
(-0 3.511187433e-15 -9.15836503e-16)
(-0 7.511546297e-16 -1.790900345e-16)
(-0 3.583444073e-17 -7.867764572e-18)
(-0 1.071128837e-17 -2.179526412e-18)
(-0 3.145142914e-18 -5.963722605e-19)
(-0 5.932395058e-19 -1.05326264e-19)
(-0 1.208411239e-19 -2.017578782e-20)
(-0 1.566927836e-20 -2.472161153e-21)
(-0 1.972553788e-21 -2.986269025e-22)
(-0 2.378830711e-22 -3.718720047e-23)
(-0 2.143252752e-23 -5.016123462e-24)
(-0 9.514989573e-25 -1.124498768e-24)
(-0 0 -0)
(-0 0 -0)
(-0 0 0)
(-0 -0 0)
(-0 -0 0)
(-0 -0 0)
(-0 -0 0)
(-0 -0 0)
(-0 -0 0)
(-0 0 0)
(-0 0 0)
(-0 -0 -0)
(-0 -0 0)
(-0 0 -0)
(-0 -0 0)
(-0 0 -0)
(-0 -0 0)
(-0 -0 0)
(-0 -0 -0)
(-0 -0 -0)
(-0 -0 -0)
(-0 -9.274542053e-12 -6.47588212e-12)
(-0 -5.504942214e-11 -5.620051775e-12)
(-0 -6.03551391e-11 1.129073868e-12)
(-0 -4.928758389e-11 -9.486323215e-13)
(-0 -1.005364949e-10 -2.187017825e-11)
(-0 -4.735565937e-11 -4.224718209e-11)
(-0 1.694222912e-06 -5.424026853e-06)
(-0 9.12605031e-05 -3094.027491)
(-0 6.661725438e-05 -2966.387497)
(-0 3.572079831e-07 -2.955456306e-07)
(-0 2.834135326e-11 -1.787706177e-11)
(-0 5.309569023e-12 -2.692622559e-12)
(-0 5.454870664e-12 -2.305092924e-12)
(-0 3.757071577e-12 -1.357828048e-12)
(-0 4.664128552e-13 -1.470518172e-13)
(-0 2.394929745e-13 -6.690779625e-14)
(-0 1.407328117e-14 -3.528018677e-15)
(-0 1.036540717e-14 -2.355965625e-15)
(-0 2.692564849e-15 -5.596953158e-16)
(-0 3.676639776e-16 -7.040770299e-17)
(-0 2.604348616e-17 -4.623566429e-18)
(-0 7.510479091e-18 -1.24283547e-18)
(-0 1.457661231e-18 -2.259046456e-19)
(-0 2.534954058e-19 -3.694910476e-20)
(-0 2.68371381e-20 -3.693538862e-21)
(-0 3.103614558e-21 -4.083308953e-22)
(-0 4.904154297e-22 -6.202443558e-23)
(-0 4.902425441e-23 -8.550742049e-24)
(-0 3.892003615e-24 -1.024211478e-25)
(-0 0 -0)
(-0 0 -0)
(-0 0 -0)
(-0 -0 0)
(-0 0 -0)
(-0 -0 0)
(-0 -0 0)
(-0 -0 0)
(-0 -0 0)
(-0 -0 -0)
(-0 -0 -0)
(-0 0 -0)
(-0 0 0)
(-0 -0 0)
(-0 0 0)
(-0 -0 -0)
(-0 0 -0)
(-0 -0 -0)
(-0 -0 0)
(-0 -0 0)
(-0 0 0)
(-0 -1.16369356e-12 -1.174064846e-12)
(-0 -2.328185035e-11 -5.37513241e-12)
(-0 -6.864073397e-11 -6.181307919e-12)
(-0 -8.975721106e-11 -8.562507725e-12)
(-0 -9.722958312e-11 -1.797884542e-11)
(-0 -1.006792807e-10 -4.202818138e-11)
(-0 -1.413026474e-06 -3.470238278e-06)
(-0 2.550902526e-05 -4741.290177)
(-0 -2.230732416e-05 -4625.439486)
(-0 4.780996689e-05 -3.503323316e-05)
(-0 2.061415252e-11 -1.09235673e-11)
(-0 1.315666703e-11 -5.650088824e-12)
(-0 1.306406076e-11 -4.696237875e-12)
(-0 2.111549124e-12 -6.509878154e-13)
(-0 1.166993058e-12 -3.144331175e-13)
(-0 2.613098287e-13 -6.246449109e-14)
(-0 6.194793304e-14 -1.32994573e-14)
(-0 1.416386822e-14 -2.758757698e-15)
(-0 2.60265426e-15 -4.638323496e-16)
(-0 6.067520179e-16 -9.965577853e-17)
(-0 5.454983455e-17 -8.308509874e-18)
(-0 1.651628453e-17 -2.345388748e-18)
(-0 2.528295234e-18 -3.363136745e-19)
(-0 3.756181231e-19 -4.70004949e-20)
(-0 3.915467935e-20 -4.623645326e-21)
(-0 4.227060262e-21 -4.742254641e-22)
(-0 6.528488431e-22 -7.015261692e-23)
(-0 8.585639039e-23 -9.788852111e-24)
(-0 7.105376641e-24 -7.723235479e-25)
(-0 1.66079818e-25 -3.044796663e-25)
(-0 0 -0)
(-0 0 -0)
(-0 -0 0)
(-0 -0 -0)
(-0 -0 0)
(-0 -0 -0)
(-0 -0 0)
(-0 -0 -0)
(-0 -0 -0)
(-0 -0 -0)
(-0 -0 0)
(-0 -0 -0)
(-0 0 0)
(-0 -0 -0)
(-0 -0 -0)
(-0 0 -0)
(-0 -0 -0)
(-0 -0 0)
(-0 0 0)
(-0 -0 0)
(-0 -2.904229283e-14 -4.180111259e-14)
(-0 -3.411011772e-12 -1.437027658e-12)
(-0 -2.646449867e-11 -6.690550986e-12)
(-0 -7.041931356e-11 -1.657387755e-11)
(-0 -1.095016795e-10 -3.039719109e-11)
(-0 -6.038193593e-11 -2.288303019e-11)
(-0 -2.975214003e-06 -2.293691318e-06)
(-0 -0.0001181589172 -6502.856231)
(-0 9.008587456e-05 -6486.808394)
(-0 0.0001983608087 -0.000151376174)
(-0 6.117541289e-11 -2.668195909e-11)
(-0 2.481868856e-11 -8.834656118e-12)
(-0 1.749178034e-11 -5.233216526e-12)
(-0 8.406431757e-12 -2.162371998e-12)
(-0 7.32457516e-13 -1.64928212e-13)
(-0 4.953705654e-13 -9.906975847e-14)
(-0 4.70630575e-14 -8.45983535e-15)
(-0 1.141205466e-14 -1.862176203e-15)
(-0 7.018183043e-15 -1.048296411e-15)
(-0 1.487199977e-15 -2.047966104e-16)
(-0 1.763519784e-16 -2.252627009e-17)
(-0 3.499849649e-17 -4.168945778e-18)
(-0 8.522461372e-18 -9.511234112e-19)
(-0 9.966913048e-19 -1.046461757e-19)
(-0 1.49783586e-20 -1.484955783e-21)
(-0 1.042828618e-20 -9.801992956e-22)
(-0 1.122516727e-21 -1.01248173e-22)
(-0 1.092182257e-22 -8.153149044e-24)
(-0 1.105724062e-23 7.061849705e-37)
(-0 7.888791355e-25 4.15199545e-25)
(-0 0 0)
(-0 0 -0)
(-0 0 -0)
(-0 0 0)
(-0 -0 -0)
(-0 -0 -0)
(-0 -0 -0)
(-0 -0 0)
(-0 -0 -0)
(-0 -0 -0)
(-0 0 0)
(-0 0 0)
(-0 -0 -0)
(-0 0 0)
(-0 -0 -0)
(-0 0 -0)
(-0 -0 -0)
(-0 -0 -0)
(-0 0 -0)
(-0 -0 -0)
(-0 -6.045058277e-17 -9.977556458e-17)
(-0 -1.056817289e-13 -5.511307576e-14)
(-0 -2.851487108e-12 -9.589856876e-13)
(-0 -1.614114475e-11 -4.884840784e-12)
(-0 -3.36761938e-11 -1.079030334e-11)
(-0 -1.914787387e-11 -7.195768531e-12)
(-0 -3.586003918e-06 -1.763661264e-06)
(-0 -0.0003332939315 -7886.490827)
(-0 0.000616614436 -8093.806394)
(-0 0.0003278879439 -0.0002053410858)
(-0 3.704812683e-11 -1.291290264e-11)
(-0 1.207635731e-11 -3.455814218e-12)
(-0 1.898926388e-11 -4.582968337e-12)
(-0 4.406299283e-12 -9.162718258e-13)
(-0 2.952976933e-12 -5.382815403e-13)
(-0 3.921674034e-13 -6.355254261e-14)
(-0 6.548094952e-14 -9.544238563e-15)
(-0 3.099457863e-14 -4.103018367e-15)
(-0 8.564484584e-15 -1.038210168e-15)
(-0 8.579708954e-16 -9.591311295e-17)
(-0 6.863136468e-17 -7.118444132e-18)
(-0 4.735361108e-17 -4.581057034e-18)
(-0 1.039176978e-17 -9.420248837e-19)
(-0 1.179280735e-18 -1.005779442e-19)
(-0 1.102870167e-19 -8.883747821e-21)
(-0 9.293396415e-21 -7.081239486e-22)
(-0 1.647816274e-21 -1.181969305e-22)
(-0 1.862788412e-22 -1.044929853e-23)
(-0 1.485037507e-23 1.110308416e-24)
(-0 9.13438999e-25 8.3039909e-25)
(-0 0 0)
(-0 0 -0)
(-0 0 -0)
(-0 -0 -0)
(-0 -0 -0)
(-0 -0 -0)
(-0 -0 -0)
(-0 -0 -0)
(-0 -0 -0)
(-0 0 0)
(-0 -0 -0)
(-0 -0 -0)
(-0 0 -0)
(-0 -0 -0)
(-0 -0 0)
(-0 0 -0)
(-0 -0 -0)
(-0 -0 -0)
(-0 -0 -0)
(-0 -0 -0)
(-0 -9.622357867e-23 -1.479749651e-22)
(-0 -2.474948118e-16 -1.223530274e-16)
(-0 -4.703394034e-14 -1.507162659e-14)
(-0 -6.189145343e-13 -1.739161217e-13)
(-0 -3.245730019e-12 -9.235804185e-13)
(-0 -8.00255057e-12 -2.520899131e-12)
(-0 -3.157277805e-06 -1.135537174e-06)
(-0 -0.0005724082922 -8377.396251)
(-0 0.001024224456 -8832.613025)
(-0 0.0003669471604 -0.0001541027838)
(-0 1.884149816e-10 -5.011889352e-11)
(-0 4.720629347e-12 -1.035826817e-12)
(-0 2.319912497e-11 -4.3050861e-12)
(-0 2.314331808e-12 -3.706744352e-13)
(-0 3.926637144e-12 -5.51918332e-13)
(-0 2.936414667e-13 -3.67212767e-14)
(-0 2.407906038e-14 -2.709836208e-15)
(-0 4.199233308e-14 -4.293787431e-15)
(-0 7.809877439e-15 -7.315001473e-16)
(-0 2.139517208e-15 -1.84846512e-16)
(-0 5.444218444e-16 -4.36486477e-17)
(-0 5.399222794e-17 -4.038165386e-18)
(-0 8.624444495e-18 -6.045022376e-19)
(-0 1.128555671e-18 -7.443278412e-20)
(-0 1.611312611e-19 -1.003345992e-20)
(-0 1.873060831e-20 -1.102390769e-21)
(-0 1.563102841e-21 -8.5840156e-23)
(-0 2.213422748e-22 -9.357559585e-24)
(-0 2.082825755e-23 -2.853185966e-25)
(-0 7.162192151e-25 2.802596929e-25)
(-0 0 -0)
(-0 0 -0)
(-0 0 -0)
(-0 0 -0)
(-0 -0 0)
(-0 -0 -0)
(-0 -0 -0)
(-0 -0 -0)
(-0 -0 -0)
(-0 -0 0)
(-0 0 -0)
(-0 0 0)
(-0 -0 -0)
(-0 0 -0)
(-0 -0 0)
(-0 0 0)
(-0 -0 -0)
(-0 -0 0)
(-0 -0 0)
(-0 -0 0)
(-0 -3.441717659e-28 -4.149657084e-28)
(-0 -3.986923469e-22 -1.548818158e-22)
(-0 -4.29409366e-17 -1.075441697e-17)
(-0 -3.038270153e-15 -6.565552213e-16)
(-0 -6.071234602e-14 -1.301544759e-14)
(-0 -5.200041265e-13 -1.206028067e-13)
(-0 -2.086526531e-06 -5.21463293e-07)
(-0 -0.0008209628716 -7594.11053)
(-0 0.001142355982 -8145.038661)
(-0 0.0003022260689 -7.82690761e-05)
(-0 3.424114051e-12 -6.414604254e-13)
(-0 3.659032405e-11 -5.674026286e-12)
(-0 1.213691117e-11 -1.594933179e-12)
(-0 1.062369363e-11 -1.206477373e-12)
(-0 3.803996316e-12 -3.794313562e-13)
(-0 1.222433406e-12 -1.085458916e-13)
(-0 2.255405711e-13 -1.80299072e-14)
(-0 2.309892454e-14 -1.678257938e-15)
(-0 1.436324966e-14 -9.56134668e-16)
(-0 3.541139101e-15 -2.174765824e-16)
(-0 3.928812461e-16 -2.239405517e-17)
(-0 5.086714857e-17 -2.70505976e-18)
(-0 6.358345398e-18 -3.169119767e-19)
(-0 1.050367027e-18 -4.926411913e-20)
(-0 1.606095432e-19 -7.110454828e-21)
(-0 2.026661218e-20 -8.467948768e-22)
(-0 1.924817938e-21 -7.194373223e-23)
(-0 3.127040715e-22 -7.631959528e-24)
(-0 2.410941446e-23 -1.307136929e-24)
(-0 1.591598256e-25 -0)
(-0 -0 0)
(-0 0 0)
(-0 0 -0)
(-0 0 -0)
(-0 -0 -0)
(-0 -0 -0)
(-0 -0 -0)
(-0 -0 -0)
(-0 -0 -0)
(-0 0 -0)
(-0 -0 -0)
(-0 -0 0)
(-0 -0 -0)
(-0 0 -0)
(-0 -0 0)
(-0 -0 -0)