/*--------------------------------*- C++ -*----------------------------------*\
  =========                 |
  \\      /  F ield         | OpenFOAM: The Open Source CFD Toolbox
   \\    /   O peration     | Website:  https://openfoam.org
    \\  /    A nd           | Version:  6
     \\/     M anipulation  |
\*---------------------------------------------------------------------------*/
FoamFile
{
    version     2.0;
    format      ascii;
    class       volScalarField;
    location    "0.03";
    object      Num_divU;
}
// * * * * * * * * * * * * * * * * * * * * * * * * * * * * * * * * * * * * * //

dimensions      [0 0 -1 0 0 0 0];

internalField   nonuniform List<scalar> 
2500
(
-4.087076429e-11
-2.308690888e-08
-9.803775926e-08
-1.625281088e-07
-2.136160816e-07
-2.481110282e-07
-2.713441808e-07
-2.800525233e-07
-1.609960638e-07
3.273296671e-23
-2.563693887e-17
-5.763705154e-17
-8.771054416e-17
-1.169869819e-16
-1.459125856e-16
-1.745571415e-16
-2.028960448e-16
-2.308864353e-16
-2.58483154e-16
-2.856414997e-16
-3.123177029e-16
-3.3846954e-16
-3.640565564e-16
-3.890399362e-16
-4.133825408e-16
-4.37049239e-16
-4.600067963e-16
-4.822240515e-16
-5.036717479e-16
-5.24322634e-16
-5.44151448e-16
-5.631348103e-16
-5.812512734e-16
-5.984812089e-16
-6.148067193e-16
-6.302116864e-16
-6.44681544e-16
-6.582033743e-16
-6.707656553e-16
-6.823582595e-16
-6.92972429e-16
-7.026005184e-16
-7.112361386e-16
-7.188739466e-16
-7.25509705e-16
-7.311403313e-16
-7.357638022e-16
-7.393792155e-16
-7.419859014e-16
-7.435786999e-16
-6.614121243e-08
-1.741835446e-07
-2.881813258e-07
-3.728755574e-07
-4.308238762e-07
-4.542519633e-07
-4.288661982e-07
-2.541112208e-07
-4.852901852e-08
-5.118217561e-17
-1.072481241e-16
-1.624956202e-16
-2.151145059e-16
-2.668255887e-16
-3.179797037e-16
-3.685721893e-16
-4.185318804e-16
-4.677783222e-16
-5.162317376e-16
-5.638149242e-16
-6.104531157e-16
-6.560741657e-16
-7.006088508e-16
-7.439914232e-16
-7.86159488e-16
-8.270540849e-16
-8.666197924e-16
-9.048046372e-16
-9.415603272e-16
-9.768419484e-16
-1.01060808e-15
-1.042820596e-15
-1.073444662e-15
-1.102448657e-15
-1.129803851e-15
-1.15548456e-15
-1.179467842e-15
-1.201733266e-15
-1.222262987e-15
-1.241041444e-15
-1.258055213e-15
-1.273293074e-15
-1.286745834e-15
-1.298406448e-15
-1.308270389e-15
-1.316336489e-15
-1.322609379e-15
-1.327106715e-15
-1.329883322e-15
-5.870601283e-16
-5.684867691e-08
-1.390039121e-07
-2.224252105e-07
-2.803110311e-07
-3.155889746e-07
-3.246007742e-07
-3.007371391e-07
-1.481252888e-07
1.022191697e-09
-4.191802032e-17
-8.933245193e-17
-1.370690817e-16
-1.827902064e-16
-2.278428141e-16
-2.724499003e-16
-3.16582187e-16
-3.601716123e-16
-4.031465334e-16
-4.454367175e-16
-4.869746517e-16
-5.276950311e-16
-5.675350041e-16
-6.064342904e-16
-6.4433529e-16
-6.811833339e-16
-7.169267301e-16
-7.515169131e-16
-7.84908401e-16
-8.170587058e-16
-8.479284325e-16
-8.774812326e-16
-9.056836439e-16
-9.325050186e-16
-9.57917583e-16
-9.818961148e-16
-1.00441798e-15
-1.025462982e-15
-1.045013117e-15
-1.063052651e-15
-1.079567671e-15
-1.094546369e-15
-1.107978574e-15
-1.119855852e-15
-1.130171407e-15
-1.138919994e-15
-1.146097776e-15
-1.151701445e-15
-1.155724221e-15
-1.158137404e-15
-5.719234356e-16
-4.957720788e-08
-1.163437516e-07
-1.765015962e-07
-2.050311388e-07
-2.016139925e-07
-1.607475479e-07
-9.858494786e-08
8.440184591e-09
1.570376039e-08
-4.125521747e-17
-8.772151864e-17
-1.34674418e-16
-1.797170255e-16
-2.241303454e-16
-2.681131554e-16
-3.116307155e-16
-3.546139733e-16
-3.969915206e-16
-4.386939607e-16
-4.796547368e-16
-5.198095796e-16
-5.590966745e-16
-5.974566528e-16
-6.348327862e-16
-6.711712829e-16
-7.0642109e-16
-7.405343707e-16
-7.734661125e-16
-8.051745242e-16
-8.356207485e-16
-8.647688501e-16
-8.925858567e-16
-9.190415908e-16
-9.441086175e-16
-9.677620565e-16
-9.899796072e-16
-1.010741226e-15
-1.03002927e-15
-1.047828078e-15
-1.064123924e-15
-1.078904935e-15
-1.092160972e-15
-1.103883356e-15
-1.114064901e-15
-1.122699466e-15
-1.129781614e-15
-1.135305609e-15
-1.139262866e-15
-1.141638884e-15
-5.705771403e-16
-3.951799082e-08
-9.054058193e-08
-1.320787087e-07
-1.401148602e-07
-1.155593489e-07
-4.834017076e-08
3.404470329e-08
8.498042967e-08
1.085638316e-08
-4.122091839e-17
-8.760739858e-17
-1.344945384e-16
-1.794838724e-16
-2.238479094e-16
-2.67782459e-16
-3.112526762e-16
-3.541898799e-16
-3.965220091e-16
-4.381791906e-16
-4.790946347e-16
-5.192044134e-16
-5.584469299e-16
-5.967630373e-16
-6.340962335e-16
-6.703927756e-16
-7.056017698e-16
-7.39675343e-16
-7.725686842e-16
-8.042398735e-16
-8.346502495e-16
-8.63763821e-16
-8.915477634e-16
-9.179719022e-16
-9.430087822e-16
-9.666336802e-16
-9.888242221e-16
-1.009560476e-15
-1.028824651e-15
-1.046601133e-15
-1.062876138e-15
-1.077637716e-15
-1.090875541e-15
-1.102580738e-15
-1.112745689e-15
-1.121363762e-15
-1.12842888e-15
-1.133934892e-15
-1.137874855e-15
-1.140241083e-15
-5.705325768e-16
-2.961149199e-08
-6.559016079e-08
-8.776186397e-08
-7.217455293e-08
-3.185363397e-08
3.767398695e-08
1.032751423e-07
6.629464384e-08
2.732585416e-08
-4.123194481e-17
-8.76228939e-17
-1.345166098e-16
-1.795140577e-16
-2.238856768e-16
-2.678263488e-16
-3.113018533e-16
-3.542445662e-16
-3.9658262e-16
-4.382455309e-16
-4.791659441e-16
-5.19279809e-16
-5.585256884e-16
-5.968446115e-16
-6.341801969e-16
-6.704787587e-16
-7.056894824e-16
-7.397645077e-16
-7.726589722e-16
-8.043310938e-16
-8.34742027e-16
-8.638559248e-16
-8.916399222e-16
-9.180638847e-16
-9.431003541e-16
-9.66724546e-16
-9.889141783e-16
-1.009649212e-15
-1.028911892e-15
-1.046686513e-15
-1.062959261e-15
-1.077718092e-15
-1.090952529e-15
-1.102653539e-15
-1.112813288e-15
-1.121424905e-15
-1.128482216e-15
-1.133979391e-15
-1.137910802e-15
-1.140271496e-15
-5.706113672e-16
-2.264259873e-08
-4.739172202e-08
-5.117561952e-08
-8.529082273e-09
4.726897187e-08
1.0906551e-07
1.362738355e-07
-1.898379649e-08
6.308867953e-08
-4.124655216e-17
-8.764712989e-17
-1.345525039e-16
-1.795634114e-16
-2.239487919e-16
-2.679018381e-16
-3.113874228e-16
-3.543397317e-16
-3.966877443e-16
-4.383608218e-16
-4.792908747e-16
-5.194135427e-16
-5.586673615e-16
-5.969934741e-16
-6.34335685e-16
-6.706403408e-16
-7.058567021e-16
-7.39936938e-16
-7.728362296e-16
-8.04512687e-16
-8.349275955e-16
-8.640450514e-16
-8.918321781e-16
-9.182588555e-16
-9.43297638e-16
-9.669238028e-16
-9.891149004e-16
-1.009850964e-15
-1.029114204e-15
-1.046888834e-15
-1.063161052e-15
-1.077918696e-15
-1.091151241e-15
-1.102849551e-15
-1.11300569e-15
-1.121612738e-15
-1.128664623e-15
-1.134155928e-15
-1.13808191e-15
-1.14043871e-15
-5.707015498e-16
-1.572746071e-08
-2.669160187e-08
-1.1049605e-08
5.716980681e-08
1.106615895e-07
1.550125209e-07
1.565958135e-07
-4.20845585e-08
5.348271312e-09
-4.125946451e-17
-8.767381552e-17
-1.345883811e-16
-1.796100196e-16
-2.240082048e-16
-2.679754644e-16
-3.114724163e-16
-3.544343406e-16
-3.967918483e-16
-4.384749231e-16
-4.794148492e-16
-5.195467569e-16
-5.588089912e-16
-5.97142712e-16
-6.344918441e-16
-6.708029353e-16
-7.060251869e-16
-7.401108665e-16
-7.730151753e-16
-8.046962756e-16
-8.351153864e-16
-8.642366381e-16
-8.920271545e-16
-9.184567877e-16
-9.434981647e-16
-9.671264167e-16
-9.893192066e-16
-1.010056491e-15
-1.029320466e-15
-1.047095339e-15
-1.063367198e-15
-1.078123912e-15
-1.091354907e-15
-1.103050978e-15
-1.113204188e-15
-1.121807676e-15
-1.128855484e-15
-1.134342606e-15
-1.13826477e-15
-1.140618781e-15
-5.707915503e-16
-6.083132179e-09
2.534113761e-09
2.754912393e-08
1.104298525e-07
1.095250548e-07
9.542642762e-08
9.370087142e-08
1.675014101e-07
-1.862706599e-07
-4.12674525e-17
-8.770592419e-17
-1.346299478e-16
-1.796586048e-16
-2.240643729e-16
-2.680445072e-16
-3.115535786e-16
-3.545250134e-16
-3.968912285e-16
-4.385832693e-16
-4.795325427e-16
-5.196735365e-16
-5.589441506e-16
-5.972855042e-16
-6.346415473e-16
-6.709589449e-16
-7.06186975e-16
-7.402780193e-16
-7.731872534e-16
-8.048728968e-16
-8.352961544e-16
-8.644211603e-16
-8.922149814e-16
-9.186475883e-16
-9.436914879e-16
-9.673218515e-16
-9.89516321e-16
-1.010254843e-15
-1.029519533e-15
-1.047294664e-15
-1.063566322e-15
-1.078322257e-15
-1.091551936e-15
-1.10324616e-15
-1.113397022e-15
-1.1219977e-15
-1.129042468e-15
-1.134526458e-15
-1.138445838e-15
-1.140797704e-15
-5.708792619e-16
4.76621469e-09
3.053047816e-08
1.608016134e-08
9.564172435e-08
9.378458899e-09
-1.011799743e-07
-1.377801085e-07
4.230224213e-07
-2.160595791e-07
-4.12733059e-17
-8.773357554e-17
-1.346727877e-16
-1.797112944e-16
-2.241203622e-16
-2.681097567e-16
-3.116306809e-16
-3.546117862e-16
-3.969860663e-16
-4.386859539e-16
-4.796435537e-16
-5.19793063e-16
-5.5907178e-16
-5.974206109e-16
-6.347834569e-16
-6.71107046e-16
-7.063407163e-16
-7.404369252e-16
-7.733509247e-16
-8.05040958e-16
-8.354682173e-16
-8.645968956e-16
-8.923940031e-16
-9.188294473e-16
-9.438758244e-16
-9.675082444e-16
-9.897043565e-16
-1.010444071e-15
-1.029709554e-15
-1.047484988e-15
-1.063756488e-15
-1.078511866e-15
-1.09174049e-15
-1.103433224e-15
-1.113582173e-15
-1.122180668e-15
-1.129223026e-15
-1.134704669e-15
-1.138621907e-15
-1.140972093e-15
-5.709636086e-16
8.00660283e-09
3.486591557e-08
-9.938025904e-08
-5.107072843e-08
-1.427314393e-07
-2.581335204e-07
-3.236218461e-07
7.081934531e-08
5.305957825e-08
-4.128656098e-17
-8.774814026e-17
-1.347046641e-16
-1.79760303e-16
-2.24174581e-16
-2.68169823e-16
-3.117016213e-16
-3.546932172e-16
-3.970759396e-16
-4.387830788e-16
-4.797479931e-16
-5.199051168e-16
-5.5919142e-16
-5.975473657e-16
-6.349167709e-16
-6.712463342e-16
-7.06485518e-16
-7.405867283e-16
-7.735052993e-16
-8.051995422e-16
-8.356306579e-16
-8.64762822e-16
-8.925630986e-16
-9.190013144e-16
-9.440500694e-16
-9.676844799e-16
-9.89882144e-16
-1.010623075e-15
-1.02988936e-15
-1.047665171e-15
-1.063936639e-15
-1.078691562e-15
-1.091919387e-15
-1.103610921e-15
-1.113758404e-15
-1.122355148e-15
-1.129395661e-15
-1.134875436e-15
-1.138790985e-15
-1.141139772e-15
-5.710435582e-16
-1.000562264e-08
2.018950271e-08
-2.214593651e-07
-2.443850434e-07
-2.83351546e-07
-3.633608665e-07
-2.37211871e-07
-6.837411497e-07
1.403954404e-07
-4.130645518e-17
-8.776338247e-17
-1.347294976e-16
-1.798024262e-16
-2.242272675e-16
-2.682252658e-16
-3.117650057e-16
-3.547669823e-16
-3.971589679e-16
-4.388736504e-16
-4.798454298e-16
-5.200094207e-16
-5.593026157e-16
-5.976652314e-16
-6.350408161e-16
-6.713760937e-16
-7.066205217e-16
-7.407265205e-16
-7.736495215e-16
-8.053477566e-16
-8.357825199e-16
-8.649179865e-16
-8.927212295e-16
-9.191620647e-16
-9.442130938e-16
-9.678494042e-16
-9.90048632e-16
-1.01079069e-15
-1.030057767e-15
-1.047834015e-15
-1.064105524e-15
-1.078860178e-15
-1.092087355e-15
-1.103777976e-15
-1.113924272e-15
-1.122519647e-15
-1.12955868e-15
-1.135036983e-15
-1.138951115e-15
-1.1412987e-15
-5.711181956e-16
-6.288764684e-08
1.57052647e-08
-1.083390157e-07
-2.027211967e-07
-3.27702443e-07
-5.700430176e-07
-1.222071352e-07
-4.902015918e-07
1.291330086e-08
-4.131904161e-17
-8.778066675e-17
-1.347525854e-16
-1.798361872e-16
-2.242790726e-16
-2.682801166e-16
-3.118234376e-16
-3.548332353e-16
-3.972338898e-16
-4.389563191e-16
-4.799348917e-16
-5.201053066e-16
-5.594048195e-16
-5.977735818e-16
-6.351549526e-16
-6.714955581e-16
-7.067449105e-16
-7.408554212e-16
-7.73782538e-16
-8.054845569e-16
-8.359227533e-16
-8.650613214e-16
-8.928673035e-16
-9.193106135e-16
-9.443637439e-16
-9.680018635e-16
-9.90202536e-16
-1.010945724e-15
-1.030213566e-15
-1.047990276e-15
-1.064261944e-15
-1.079016396e-15
-1.092243111e-15
-1.103933e-15
-1.11407838e-15
-1.122672616e-15
-1.129710448e-15
-1.135187522e-15
-1.13910049e-15
-1.141446989e-15
-5.711865449e-16
-8.753666405e-08
-5.073767334e-08
2.560434189e-08
1.200366363e-07
4.940593554e-08
-4.525326828e-07
-1.699091017e-07
1.496302405e-07
-2.259540793e-07
-4.132422337e-17
-8.779811972e-17
-1.347765058e-16
-1.798590269e-16
-2.243231486e-16
-2.683330851e-16
-3.118793067e-16
-3.548938881e-16
-3.973011208e-16
-4.390304688e-16
-4.800155329e-16
-5.201919909e-16
-5.594973156e-16
-5.978716712e-16
-6.352583881e-16
-6.71603916e-16
-7.068577918e-16
-7.409724872e-16
-7.739034244e-16
-8.056089051e-16
-8.360502705e-16
-8.651916566e-16
-8.930002005e-16
-9.194457361e-16
-9.445007986e-16
-9.681405893e-16
-9.903426259e-16
-1.011086859e-15
-1.030355463e-15
-1.048132627e-15
-1.064404449e-15
-1.079158827e-15
-1.092385175e-15
-1.104074519e-15
-1.11421911e-15
-1.122812452e-15
-1.129849292e-15
-1.135325321e-15
-1.139237246e-15
-1.141582774e-15
-5.712477376e-16
-4.135333227e-08
-3.473194218e-07
-5.468823812e-07
-2.633534437e-07
4.798370876e-07
-2.000448079e-07
-3.93039923e-07
7.061325642e-07
-4.675054617e-07
-4.132824843e-17
-8.781521815e-17
-1.348045847e-16
-1.79877761e-16
-2.243540722e-16
-2.683772115e-16
-3.119299316e-16
-3.549490594e-16
-3.973611854e-16
-4.390960562e-16
-4.800867974e-16
-5.202687673e-16
-5.595794044e-16
-5.979588453e-16
-6.353503679e-16
-6.717003649e-16
-7.069583414e-16
-7.410767891e-16
-7.740111587e-16
-8.05719776e-16
-8.361639342e-16
-8.653078822e-16
-8.931187229e-16
-9.195662493e-16
-9.44623089e-16
-9.682643236e-16
-9.904675659e-16
-1.011212776e-15
-1.030482089e-15
-1.048259668e-15
-1.064531701e-15
-1.079286031e-15
-1.092512116e-15
-1.104200961e-15
-1.114344946e-15
-1.122937534e-15
-1.129973509e-15
-1.135448592e-15
-1.139359624e-15
-1.141704253e-15
-5.713008726e-16
1.594943463e-07
1.655566152e-07
-5.102041287e-07
-2.863277878e-07
4.283220254e-07
1.041495757e-07
-5.123301207e-07
1.291110006e-06
-6.267581718e-07
-4.133363876e-17
-8.783118073e-17
-1.348344174e-16
-1.799054111e-16
-2.243783528e-16
-2.684102186e-16
-3.119715733e-16
-3.549965585e-16
-3.974132666e-16
-4.391527217e-16
-4.801482241e-16
-5.20335039e-16
-5.596504025e-16
-5.98034339e-16
-6.354300809e-16
-6.717840484e-16
-7.070456319e-16
-7.411673717e-16
-7.741047051e-16
-8.05816016e-16
-8.362626587e-16
-8.654088093e-16
-8.932216146e-16
-9.196709019e-16
-9.447292792e-16
-9.683717999e-16
-9.905761154e-16
-1.011322146e-15
-1.030592037e-15
-1.048370044e-15
-1.06464224e-15
-1.07939649e-15
-1.092622383e-15
-1.104310838e-15
-1.114454265e-15
-1.123046199e-15
-1.130081415e-15
-1.135555684e-15
-1.139465858e-15
-1.141809619e-15
-5.713451188e-16
-1.137604723e-07
5.137408313e-07
3.033522218e-07
-2.282810202e-07
2.302476536e-07
4.794820433e-07
-6.382963093e-07
2.021154615e-06
-3.502158096e-07
-4.13391362e-17
-8.784173714e-17
-1.348525844e-16
-1.799405768e-16
-2.244053774e-16
-2.684376273e-16
-3.12004711e-16
-3.550350847e-16
-3.974561818e-16
-4.391996064e-16
-4.801992096e-16
-5.2039014e-16
-5.597095419e-16
-5.980974122e-16
-6.354967876e-16
-6.718540667e-16
-7.07118727e-16
-7.412432519e-16
-7.741830792e-16
-8.058966708e-16
-8.363453334e-16
-8.654933261e-16
-8.933077709e-16
-9.197585064e-16
-9.448181071e-16
-9.684616871e-16
-9.906668867e-16
-1.011413616e-15
-1.030684019e-15
-1.048462299e-15
-1.064734589e-15
-1.079488828e-15
-1.092714482e-15
-1.104402585e-15
-1.114545499e-15
-1.123136823e-15
-1.130171365e-15
-1.135644893e-15
-1.139554279e-15
-1.141897206e-15
-5.713796076e-16
-3.802485859e-07
1.906624199e-07
8.463915146e-07
3.749747781e-07
3.459687967e-07
5.463299093e-07
-7.800963892e-07
1.664808884e-06
2.771295607e-07
-4.134563642e-17
-8.785373792e-17
-1.348530055e-16
-1.799659764e-16
-2.244318097e-16
-2.684632467e-16
-3.120326465e-16
-3.55065981e-16
-3.974899979e-16
-4.392363336e-16
-4.802390911e-16
-5.204333616e-16
-5.597561373e-16
-5.98147212e-16
-6.355496022e-16
-6.719096157e-16
-7.071767209e-16
-7.413034536e-16
-7.742452531e-16
-8.059605943e-16
-8.364108447e-16
-8.655602604e-16
-8.933759564e-16
-9.198278301e-16
-9.44888389e-16
-9.685327873e-16
-9.90738613e-16
-1.011485859e-15
-1.03075659e-15
-1.048535076e-15
-1.064807412e-15
-1.079561521e-15
-1.09278695e-15
-1.104474672e-15
-1.114617099e-15
-1.123207876e-15
-1.130241756e-15
-1.135714587e-15
-1.139623187e-15
-1.141965385e-15
-5.714035873e-16
-3.058913905e-08
-1.283949057e-07
4.494199792e-07
5.15699641e-07
4.058149004e-07
9.50062934e-07
-5.482988748e-07
4.628810799e-07
7.736313834e-07
-4.134719895e-17
-8.787878382e-17
-1.348546524e-16
-1.799752317e-16
-2.244479614e-16
-2.684827804e-16
-3.120548001e-16
-3.55089843e-16
-3.975151499e-16
-4.392629449e-16
-4.80267691e-16
-5.204643184e-16
-5.597895953e-16
-5.981830967e-16
-6.355877264e-16
-6.719497798e-16
-7.072186821e-16
-7.413470048e-16
-7.742902302e-16
-8.060068319e-16
-8.36458175e-16
-8.656085633e-16
-8.934251259e-16
-9.198777092e-16
-9.449389e-16
-9.685838241e-16
-9.907900824e-16
-1.011537562e-15
-1.030808487e-15
-1.048586997e-15
-1.064859271e-15
-1.079613195e-15
-1.09283832e-15
-1.10452564e-15
-1.114667608e-15
-1.123257807e-15
-1.130291053e-15
-1.135763208e-15
-1.139671107e-15
-1.142012559e-15
-5.714162977e-16
3.29858765e-07
1.422418058e-07
3.127682255e-07
6.585833159e-07
5.034828956e-07
9.673569024e-07
4.133980327e-07
-4.574040413e-07
9.573455828e-07
-4.134069544e-17
-8.790170038e-17
-1.348705184e-16
-1.799805354e-16
-2.244551856e-16
-2.684932044e-16
-3.120683923e-16
-3.551053216e-16
-3.975313062e-16
-4.392794342e-16
-4.802848519e-16
-5.204826773e-16
-5.598094045e-16
-5.98204432e-16
-6.356104941e-16
-6.719738124e-16
-7.072438027e-16
-7.413730485e-16
-7.743170412e-16
-8.060343453e-16
-8.364862613e-16
-8.656371456e-16
-8.934541242e-16
-9.199070704e-16
-9.449685479e-16
-9.686136579e-16
-9.90820007e-16
-1.011567536e-15
-1.03083841e-15
-1.048616798e-15
-1.064888853e-15
-1.079642489e-15
-1.092867228e-15
-1.104554128e-15
-1.114695562e-15
-1.123285196e-15
-1.130317846e-15
-1.135789307e-15
-1.139696516e-15
-1.142037241e-15
-5.714170582e-16
1.691388127e-07
2.519375873e-07
2.943576666e-07
8.284809577e-07
8.436971174e-07
6.510438371e-07
9.756912181e-07
-8.509493717e-07
9.158790011e-07
-4.133531118e-17
-8.790094036e-17
-1.348848164e-16
-1.799859833e-16
-2.244589066e-16
-2.684957304e-16
-3.120717742e-16
-3.551103068e-16
-3.975370601e-16
-4.392851453e-16
-4.80290254e-16
-5.204880716e-16
-5.598151334e-16
-5.982106487e-16
-6.356172313e-16
-6.719810004e-16
-7.072512995e-16
-7.413807688e-16
-7.743248878e-16
-8.060422227e-16
-8.36494171e-16
-8.656450399e-16
-8.934619759e-16
-9.199148323e-16
-9.449761765e-16
-9.686211533e-16
-9.908273083e-16
-1.011574626e-15
-1.030845181e-15
-1.048623255e-15
-1.064894948e-15
-1.079648144e-15
-1.0928724e-15
-1.104558779e-15
-1.114699655e-15
-1.123288664e-15
-1.130320692e-15
-1.135791512e-15
-1.139698059e-15
-1.14203809e-15
-5.714052347e-16
-2.963356163e-08
2.167656895e-07
6.005508172e-08
5.738587615e-07
1.054392037e-06
4.832934647e-07
8.497699041e-07
-1.304282214e-06
6.617178385e-07
-4.13431514e-17
-8.788801376e-17
-1.348858523e-16
-1.799863772e-16
-2.244602228e-16
-2.684929324e-16
-3.120657592e-16
-3.551039102e-16
-3.975309623e-16
-4.392788666e-16
-4.802831973e-16
-5.20480014e-16
-5.598062735e-16
-5.982011999e-16
-6.356073154e-16
-6.719705924e-16
-7.072404273e-16
-7.413693313e-16
-7.74312918e-16
-8.060296753e-16
-8.364810579e-16
-8.656313656e-16
-8.934477244e-16
-9.199000532e-16
-9.449608535e-16
-9.686052927e-16
-9.908109129e-16
-1.011557691e-15
-1.030827727e-15
-1.048605251e-15
-1.06487635e-15
-1.079628985e-15
-1.092852638e-15
-1.104538415e-15
-1.114678646e-15
-1.123267054e-15
-1.13029839e-15
-1.135768568e-15
-1.139674446e-15
-1.142013811e-15
-5.713802455e-16
-4.428688236e-08
3.881850507e-07
-3.33471258e-08
3.174934603e-09
7.325277826e-07
5.599437138e-07
7.918355067e-07
-1.315670837e-06
2.912782328e-07
-4.135377821e-17
-8.787950465e-17
-1.34878034e-16
-1.799788156e-16
-2.24456316e-16
-2.684857138e-16
-3.120523805e-16
-3.550870286e-16
-3.975127206e-16
-4.392597903e-16
-4.802628488e-16
-5.20457936e-16
-5.59782385e-16
-5.981756233e-16
-6.355801855e-16
-6.719420377e-16
-7.072105005e-16
-7.413380922e-16
-7.742803901e-16
-8.059958899e-16
-8.364460915e-16
-8.655952406e-16
-8.934105457e-16
-9.1986183e-16
-9.449216419e-16
-9.685651472e-16
-9.907698772e-16
-1.011515788e-15
-1.030784982e-15
-1.048561716e-15
-1.064832063e-15
-1.079583929e-15
-1.092806865e-15
-1.104491912e-15
-1.114631452e-15
-1.123219127e-15
-1.130249821e-15
-1.135719346e-15
-1.139624566e-15
-1.141963321e-15
-5.713416024e-16
-9.961938317e-08
5.437762505e-07
2.336783579e-07
-3.508506013e-07
-1.36584327e-07
2.85355707e-07
6.739538137e-07
-7.919369282e-07
3.276451748e-08
-4.13568752e-17
-8.78776044e-17
-1.348688274e-16
-1.799651891e-16
-2.244435823e-16
-2.684722913e-16
-3.1203273e-16
-3.55061314e-16
-3.974831616e-16
-4.39227824e-16
-4.802286665e-16
-5.204212417e-16
-5.597429314e-16
-5.981334229e-16
-6.355353823e-16
-6.718948147e-16
-7.071609858e-16
-7.412864238e-16
-7.742266391e-16
-8.059402265e-16
-8.363885724e-16
-8.655360009e-16
-8.933496298e-16
-9.197993623e-16
-9.448577426e-16
-9.684998758e-16
-9.907033323e-16
-1.011448035e-15
-1.030716132e-15
-1.048491788e-15
-1.064761133e-15
-1.079512051e-15
-1.092734107e-15
-1.104418288e-15
-1.114557043e-15
-1.123143976e-15
-1.130173947e-15
-1.135642783e-15
-1.139547381e-15
-1.141885534e-15
-5.712888449e-16
-2.71175815e-07
3.660166624e-07
5.735119301e-07
-2.378917256e-08
-6.321983046e-07
-1.69561828e-07
2.716013531e-07
-3.673689903e-07
-1.600576065e-08
-4.135268893e-17
-8.787603323e-17
-1.348590829e-16
-1.799484279e-16
-2.244198194e-16
-2.684488202e-16
-3.120052965e-16
-3.550271704e-16
-3.97443204e-16
-4.391834599e-16
-4.801805545e-16
-5.203694926e-16
-5.596874188e-16
-5.98074152e-16
-6.35472484e-16
-6.718284459e-16
-7.070913852e-16
-7.412137809e-16
-7.741511801e-16
-8.058620519e-16
-8.363078979e-16
-8.654529621e-16
-8.932643875e-16
-9.197120421e-16
-9.447684614e-16
-9.684087692e-16
-9.906105447e-16
-1.011353678e-15
-1.03062032e-15
-1.048394634e-15
-1.064662756e-15
-1.079412536e-15
-1.092633539e-15
-1.104316758e-15
-1.114454592e-15
-1.123040729e-15
-1.130069927e-15
-1.135538088e-15
-1.139442037e-15
-1.141779651e-15
-5.712215925e-16
-3.50277075e-07
7.478653368e-09
5.34819108e-07
4.897972685e-07
-4.19135593e-07
-3.16056906e-07
-1.072380383e-07
-2.002014207e-07
1.600359206e-07
-4.134532844e-17
-8.786820258e-17
-1.348432632e-16
-1.799289765e-16
-2.243855167e-16
-2.684120159e-16
-3.119664731e-16
-3.549828291e-16
-3.973924729e-16
-4.391268484e-16
-4.801186343e-16
-5.203025257e-16
-5.596155165e-16
-5.979973611e-16
-6.353909875e-16
-6.717425092e-16
-7.070012888e-16
-7.411197761e-16
-7.740535017e-16
-8.057609435e-16
-8.362035546e-16
-8.653456116e-16
-8.931541919e-16
-9.195991973e-16
-9.446531709e-16
-9.682912171e-16
-9.904908775e-16
-1.01123209e-15
-1.030496936e-15
-1.048269638e-15
-1.064536264e-15
-1.079284696e-15
-1.092504458e-15
-1.104186561e-15
-1.114323415e-15
-1.12290864e-15
-1.129937033e-15
-1.135404479e-15
-1.139307814e-15
-1.141644858e-15
-5.711396192e-16
-2.240602507e-07
-1.161312524e-07
2.625705144e-07
6.666349656e-07
1.898274959e-08
-9.067605645e-08
-1.309605673e-07
-2.563046701e-07
4.193409434e-07
-4.13366809e-17
-8.785500682e-17
-1.348192323e-16
-1.799063109e-16
-2.243460849e-16
-2.683642203e-16
-3.119149861e-16
-3.549263103e-16
-3.973296395e-16
-4.390573784e-16
-4.800426682e-16
-5.20220233e-16
-5.595270164e-16
-5.979028363e-16
-6.352906506e-16
-6.716367126e-16
-7.068903321e-16
-7.410040186e-16
-7.739332462e-16
-8.056364957e-16
-8.360751494e-16
-8.652135015e-16
-8.93018668e-16
-9.194604749e-16
-9.445114592e-16
-9.681467355e-16
-9.903438601e-16
-1.011082755e-15
-1.030345499e-15
-1.048116237e-15
-1.064381105e-15
-1.079127959e-15
-1.09234634e-15
-1.104027184e-15
-1.114162907e-15
-1.122747137e-15
-1.12977469e-15
-1.135241393e-15
-1.139144127e-15
-1.141480681e-15
-5.710426278e-16
-4.185065164e-08
5.049486137e-08
1.227264496e-07
5.51519853e-07
2.463523776e-07
2.142854947e-07
2.966310576e-07
-3.325519731e-07
6.235974924e-07
-4.132490301e-17
-8.78382082e-17
-1.347885183e-16
-1.798757853e-16
-2.243050945e-16
-2.683109883e-16
-3.11853314e-16
-3.548576834e-16
-3.972539422e-16
-4.389743808e-16
-4.799522215e-16
-5.201223196e-16
-5.594217067e-16
-5.977903228e-16
-6.351712496e-16
-6.715108006e-16
-7.067583316e-16
-7.408662977e-16
-7.73790167e-16
-8.05488391e-16
-8.35922403e-16
-8.650563639e-16
-8.928574336e-16
-9.192954556e-16
-9.443429378e-16
-9.679749858e-16
-9.90169111e-16
-1.010905288e-15
-1.030165562e-15
-1.047934054e-15
-1.064196932e-15
-1.078942009e-15
-1.092158737e-15
-1.103838187e-15
-1.11397267e-15
-1.122555859e-15
-1.129582483e-15
-1.13504841e-15
-1.138950548e-15
-1.141286638e-15
-5.709305338e-16
4.105720161e-08
2.492506461e-07
1.871046012e-07
4.100367786e-07
2.756441212e-07
4.062489344e-07
9.741413344e-07
-3.220181037e-07
7.88866895e-07
-4.131174508e-17
-8.781810637e-17
-1.347542386e-16
-1.798303924e-16
-2.242580568e-16
-2.682538589e-16
-3.117845105e-16
-3.547787215e-16
-3.971659649e-16
-4.388778025e-16
-4.798470364e-16
-5.200085228e-16
-5.592993421e-16
-5.9765964e-16
-6.350326339e-16
-6.713646587e-16
-7.066050839e-16
-7.407063891e-16
-7.736240815e-16
-8.053164905e-16
-8.35745073e-16
-8.648739707e-16
-8.926703347e-16
-9.191039535e-16
-9.441473763e-16
-9.677757126e-16
-9.899664361e-16
-1.01069948e-15
-1.029956896e-15
-1.047722865e-15
-1.063983443e-15
-1.078726465e-15
-1.091941429e-15
-1.103619304e-15
-1.113752426e-15
-1.122334444e-15
-1.129360096e-15
-1.134825269e-15
-1.138726775e-15
-1.141062403e-15
-5.708032492e-16
2.589645153e-08
2.843722524e-07
2.948222549e-07
3.850489677e-07
3.467277263e-07
5.26347374e-07
1.458653785e-06
-4.670849956e-07
9.033146795e-07
-4.13013661e-17
-8.779333533e-17
-1.347228859e-16
-1.797726445e-16
-2.241980706e-16
-2.681874636e-16
-3.117068901e-16
-3.54689636e-16
-3.970662061e-16
-4.387678393e-16
-4.79727183e-16
-5.198787594e-16
-5.59159856e-16
-5.975107587e-16
-6.348747126e-16
-6.711981524e-16
-7.064305647e-16
-7.405243389e-16
-7.73434944e-16
-8.05120733e-16
-8.355430898e-16
-8.64666225e-16
-8.924572385e-16
-9.188858908e-16
-9.439247275e-16
-9.675488005e-16
-9.89735665e-16
-1.010465192e-15
-1.029719429e-15
-1.04748253e-15
-1.063740537e-15
-1.078481312e-15
-1.091694267e-15
-1.103370406e-15
-1.11350206e-15
-1.122082804e-15
-1.129107439e-15
-1.134571762e-15
-1.13847266e-15
-1.140807884e-15
-5.706607873e-16
3.830949144e-09
1.730507107e-07
3.429420739e-07
4.547128896e-07
5.880279001e-07
6.64465179e-07
1.399167918e-06
-5.598123099e-07
7.461520388e-07
-4.129463955e-17
-8.775751141e-17
-1.346935694e-16
-1.797161308e-16
-2.241296388e-16
-2.681098352e-16
-3.116182088e-16
-3.545892819e-16
-3.969542889e-16
-4.386445893e-16
-4.795926766e-16
-5.197331337e-16
-5.590033054e-16
-5.973436038e-16
-6.346975001e-16
-6.710113869e-16
-7.062347644e-16
-7.403200926e-16
-7.732227284e-16
-8.049011186e-16
-8.353165261e-16
-8.644331975e-16
-8.922181518e-16
-9.186412347e-16
-9.436749328e-16
-9.672942845e-16
-9.894768389e-16
-1.010202432e-15
-1.029453117e-15
-1.047213049e-15
-1.063468234e-15
-1.078206478e-15
-1.091417265e-15
-1.103091508e-15
-1.113221539e-15
-1.121800963e-15
-1.128824485e-15
-1.134287973e-15
-1.138188237e-15
-1.140523059e-15
-5.70503176e-16
1.054917222e-08
8.231141008e-08
3.840156583e-07
5.213459385e-07
6.879878519e-07
7.758893486e-07
8.305900672e-07
-1.77481159e-07
1.850846594e-07
-4.128947098e-17
-8.771184656e-17
-1.346527215e-16
-1.796628593e-16
-2.240588601e-16
-2.680239388e-16
-3.115189039e-16
-3.544773616e-16
-3.968300205e-16
-4.385079095e-16
-4.794435364e-16
-5.195716308e-16
-5.588297227e-16
-5.971583588e-16
-6.345011043e-16
-6.708044276e-16
-7.06017851e-16
-7.400937738e-16
-7.729876574e-16
-8.046577761e-16
-8.350654882e-16
-8.641749756e-16
-8.919532525e-16
-9.183701634e-16
-9.433981766e-16
-9.670122939e-16
-9.891900864e-16
-1.00991136e-15
-1.029158146e-15
-1.046914577e-15
-1.063166656e-15
-1.077902171e-15
-1.091110555e-15
-1.102782753e-15
-1.112911043e-15
-1.121489005e-15
-1.128511367e-15
-1.13397398e-15
-1.137873614e-15
-1.140208097e-15
-5.703305771e-16
5.61127619e-08
7.305181243e-08
4.2722307e-07
5.412649445e-07
5.657436544e-07
7.749757736e-07
3.502571308e-07
6.688968451e-07
-4.325899338e-07
-4.128530548e-17
-8.767511728e-17
-1.345995953e-16
-1.796050952e-16
-2.239842695e-16
-2.679313123e-16
-3.114104218e-16
-3.543546106e-16
-3.966935938e-16
-4.383578865e-16
-4.792798196e-16
-5.193943489e-16
-5.586392001e-16
-5.969551328e-16
-6.342856865e-16
-6.705774664e-16
-7.057799697e-16
-7.398456162e-16
-7.727298142e-16
-8.043909092e-16
-8.347901502e-16
-8.638917761e-16
-8.916627469e-16
-9.180728728e-16
-9.430946346e-16
-9.667031038e-16
-9.88875662e-16
-1.009592198e-15
-1.028834737e-15
-1.046587368e-15
-1.062836051e-15
-1.077568627e-15
-1.090774431e-15
-1.102444398e-15
-1.112570813e-15
-1.121147227e-15
-1.128168354e-15
-1.133630045e-15
-1.137529035e-15
-1.139863166e-15
-5.701431542e-16
1.078327582e-07
4.529507766e-08
2.500197748e-07
5.734575042e-07
2.017237088e-07
7.86756296e-07
-2.277009483e-07
1.356732634e-06
-4.613653541e-07
-4.127292698e-17
-8.764658177e-17
-1.345421492e-16
-1.795377394e-16
-2.239010949e-16
-2.678304487e-16
-3.112929477e-16
-3.542215744e-16
-3.965454798e-16
-4.381947398e-16
-4.791017308e-16
-5.192014899e-16
-5.584320119e-16
-5.967341074e-16
-6.34051485e-16
-6.703307348e-16
-7.055213889e-16
-7.395758962e-16
-7.724496029e-16
-8.041008428e-16
-8.3449088e-16
-8.635839138e-16
-8.913469338e-16
-9.177497384e-16
-9.427647243e-16
-9.663669611e-16
-9.885338775e-16
-1.009245303e-15
-1.028483267e-15
-1.04623177e-15
-1.062476817e-15
-1.077206153e-15
-1.090409195e-15
-1.102076799e-15
-1.112201225e-15
-1.120775972e-15
-1.127795822e-15
-1.13325651e-15
-1.137154876e-15
-1.139488682e-15
-5.699411335e-16
6.370922101e-08
1.450217645e-07
-2.494634829e-07
1.623399855e-07
-2.554379686e-07
1.459927827e-07
-6.274962716e-07
7.202961021e-07
-2.661573976e-07
-4.125381071e-17
-8.762177899e-17
-1.344883995e-16
-1.794635807e-16
-2.238085852e-16
-2.677204783e-16
-3.111661731e-16
-3.540783833e-16
-3.963858676e-16
-4.380187644e-16
-4.789094986e-16
-5.189933149e-16
-5.582083424e-16
-5.964955868e-16
-6.337987696e-16
-6.700645784e-16
-7.052424888e-16
-7.392849474e-16
-7.721473125e-16
-8.037879004e-16
-8.341680345e-16
-8.632518087e-16
-8.910062401e-16
-9.174010981e-16
-9.42408814e-16
-9.660043542e-16
-9.881652153e-16
-1.008871138e-15
-1.028104129e-15
-1.045848231e-15
-1.062089393e-15
-1.076815327e-15
-1.090015372e-15
-1.101680442e-15
-1.111802716e-15
-1.120375738e-15
-1.12739423e-15