/*--------------------------------*- C++ -*----------------------------------*\
  =========                 |
  \\      /  F ield         | OpenFOAM: The Open Source CFD Toolbox
   \\    /   O peration     | Website:  https://openfoam.org
    \\  /    A nd           | Version:  6
     \\/     M anipulation  |
\*---------------------------------------------------------------------------*/
FoamFile
{
    version     2.0;
    format      ascii;
    class       volScalarField;
    location    "0.03";
    object      p_rgh;
}
// * * * * * * * * * * * * * * * * * * * * * * * * * * * * * * * * * * * * * //

dimensions      [1 -1 -2 0 0 0 0];

internalField   nonuniform List<scalar> 
2500
(
0.002363716822
0.006691300576
0.01070370008
0.01408782251
0.01668775066
0.0183513219
0.01952056506
0.01828151971
27276.12088
27294.52131
27312.7201
27330.61534
27348.06878
27364.95678
27381.17323
27396.63163
27411.26587
27425.03
27437.89723
27449.85808
27460.9183
27471.09643
27480.42134
27488.92989
27496.66469
27503.67223
27510.00115
27515.70083
27520.82035
27525.4075
27529.50822
27533.16607
27536.42194
27539.31387
27541.87694
27544.14332
27546.14224
27547.90018
27549.44091
27550.78567
27551.9533
27552.96042
27553.82151
27554.54911
27555.15387
27555.64476
27556.02905
27556.31247
27556.49925
27556.59209
0.002500332487
0.00703567843
0.01121050561
0.01470506639
0.01736471405
0.01904876556
0.02023749383
0.01900305932
27276.12166
27294.67652
27313.02375
27331.05713
27348.63427
27365.62838
27381.93139
27397.45595
27412.13616
27425.92716
27438.80389
27450.75905
27461.80079
27471.95009
27481.23821
27489.70416
27497.39254
27504.35149
27510.63103
27516.28171
27521.35344
27525.8947
27529.95188
27533.56887
27536.78673
27539.64359
27542.17454
27544.41168
27546.38417
27548.11835
27549.63785
27550.96378
27552.11483
27553.10747
27553.95605
27554.67297
27555.26881
27555.75241
27556.13097
27556.41019
27556.59426
27556.68601
0.002783462673
0.007744905512
0.0122536202
0.01596687314
0.01874162667
0.02045426283
0.02167259118
0.02038397058
27276.12372
27294.99238
27313.64146
27331.95531
27349.78302
27366.99138
27383.46836
27399.12505
27413.89615
27427.73919
27440.63279
27452.5742
27463.57655
27473.66586
27482.87821
27491.25707
27498.85094
27505.71133
27511.89105
27517.44284
27522.41837
27526.86739
27530.83721
27534.37231
27537.5141
27540.30083
27542.7676
27544.94638
27546.86613
27548.55293
27550.03015
27551.31857
27552.4366
27553.40041
27554.2241
27554.91981
27555.49789
27555.96699
27556.33417
27556.60498
27556.78352
27556.87253
0.003237811418
0.008865861222
0.01388619378
0.01791872385
0.02084374454
0.02257207237
0.02381015958
0.02245138508
27276.12684
27295.48004
27314.59455
27333.33976
27351.55126
27369.08595
27385.82589
27401.68008
27416.58462
27430.50115
27443.41443
27455.32905
27466.26606
27476.25936
27485.35254
27493.59587
27501.04381
27507.75289
27513.78007
27519.18138
27524.01099
27528.32052
27532.15855
27535.57038
27538.59787
27541.27942
27543.65008
27545.74157
27547.58253
27549.19863
27550.61278
27551.84531
27552.91417
27553.83509
27554.62174
27555.28591
27555.83759
27556.28515
27556.6354
27556.89369
27557.06398
27557.1489
0.00390228891
0.01047291261
0.01619510749
0.02063310119
0.02370930205
0.02539985506
0.0266129222
0.0251987562
27276.13116
27296.15735
27315.9171
27335.25802
27353.99643
27371.97549
27389.0694
27405.1851
27420.26148
27434.26685
27447.19526
27459.06216
27469.89996
27479.75376
27488.67756
27496.73097
27503.97649
27510.47738
27516.29603
27521.49273
27526.12487
27530.24637
27533.90736
27537.1541
27540.02891
27542.5703
27544.81312
27546.78873
27548.52525
27550.04777
27551.37854
27552.53726
27553.54125
27554.40562
27555.14348
27555.7661
27556.28304
27556.70225
27557.03023
27557.27206
27557.43148
27557.511
0.004833886227
0.012674467
0.01930565298
0.02420879986
0.02737839214
0.02891135911
0.02999296936
0.02859110436
27276.13712
27297.05035
27317.6586
27337.77885
27357.20107
27375.75031
27393.29136
27409.72975
27425.00973
27439.10997
27452.03815
27463.825
27474.51856
27484.17894
27492.87383
27500.67487
27507.65477
27513.88514
27519.43501
27524.36978
27528.75058
27532.63393
27536.07169
27539.11105
27541.79471
27544.16113
27546.24477
27548.07643
27549.68346
27551.09014
27552.31787
27553.3855
27554.30951
27555.10423
27555.78205
27556.35359
27556.82783
27557.21223
27557.51285
27557.73446
27557.88055
27557.95343
0.006108898222
0.01561915264
0.02338947699
0.02877336683
0.03188103968
0.03303197137
0.0337742087
0.0325340262
27276.1442
27298.1953
27319.8882
27340.99773
27361.27876
27380.53345
27398.61616
27415.4331
27430.93807
27445.12561
27458.0229
27469.68175
27480.17105
27489.57038
27497.9648
27505.44084
27512.08354
27517.97443
27523.19019
27527.80194
27531.8749
27535.46832
27538.63569
27541.425
27543.87909
27546.0361
27547.92983
27549.59018
27551.04349
27552.31294
27553.41883
27554.37891
27555.20861
27555.92131
27556.5285
27557.04
27557.46408
27557.80761
27558.07614
27558.27402
27558.40447
27558.46958
0.007817631564
0.01949501968
0.02866621681
0.03447078231
0.03718359612
0.03756483337
0.03762577758
0.03684360209
27276.15192
27299.64248
27322.70124
27345.04507
27366.38277
27386.48865
27405.20687
27422.44865
27438.18421
27452.43193
27465.24665
27476.7087
27486.91423
27495.96753
27503.97502
27511.04108
27517.26513
27522.73989
27527.55046
27531.77404
27535.47994
27538.73
27541.57903
27544.07546
27546.2619
27548.17572
27549.84968
27551.31241
27552.58886
27553.7008
27554.66712
27555.50423
27556.22628
27556.84548
27557.37224
27557.81544
27558.18251
27558.47961
27558.71171
27558.88267
27558.99537
27559.05167
0.01004003835
0.02452896782
0.03543104666
0.0414937082
0.04320313784
0.04219728179
0.04105305492
0.04120258468
27276.1576
27301.46165
27326.22923
27350.09839
27372.71852
27393.83148
27413.27411
27430.97063
27446.91853
27461.17168
27473.82364
27484.9928
27494.81039
27503.41128
27510.92756
27517.48429
27523.19701
27528.17058
27532.49885
27536.26496
27539.54203
27542.39392
27544.87625
27547.03724
27548.91866
27550.55659
27551.98219
27553.22234
27554.30021
27555.23576
27556.04615
27556.74614
27557.34837
27557.86365
27558.30115
27558.66862
27558.97254
27559.21825
27559.41004
27559.55124
27559.64432
27559.69087
0.01279694852
0.03091004561
0.04392371803
0.04994861718
0.04976441983
0.04645543778
0.04334007099
0.04492099514
27276.15849
27303.75244
27330.65557
27356.40046
27380.56124
27402.84454
27423.08748
27441.24141
27457.34791
27471.51309
27483.88398
27494.62916
27503.92401
27511.94049
27518.84057
27524.77246
27529.86906
27534.24764
27538.0105
27541.2461
27544.03048
27546.42866
27548.49607
27550.27991
27551.82025
27553.15116
27554.30156
27555.296
27556.15536
27556.89737
27557.5371
27558.08736
27558.55899
27558.96118
27559.30167
27559.58695
27559.8224
27560.01244
27560.16059
27560.26959
27560.34144
27560.37745
0.01602421068
0.03831339848
0.05352142859
0.05872624338
0.05510370151
0.04823811707
0.04276215839
0.04646858315
27276.16005
27306.66174
27336.2399
27364.28618
27390.28105
27413.8977
27434.9898
27453.55974
27469.71892
27483.64923
27495.57064
27505.71654
27514.31679
27521.58699
27527.72268
27532.89692
27537.26018
27540.94151
27544.05053
27546.67964
27548.90634
27550.79539
27552.40076
27553.76738
27554.93264
27555.92764
27556.77829
27557.50618
27558.12932
27558.66275
27559.11905
27559.50874
27559.8406
27560.12198
27560.359
27560.55672
27560.71931
27560.85014
27560.95193
27561.02672
27561.07604
27561.10087
0.0193445552
0.04618330058
0.0638529768
0.06777119409
0.0584685296
0.04593074837
0.0382483254
0.04552618546
27276.17333
27310.40927
27343.35562
27374.22254
27402.37846
27427.47498
27449.41412
27468.28892
27484.31911
27497.79479
27509.03344
27518.35034
27526.04048
27532.36893
27537.56721
27541.83339
27545.33428
27548.20879
27550.5716
27552.51676
27554.12108
27555.44706
27556.54548
27557.45753
27558.21662
27558.84984
27559.37919
27559.82255
27560.19445
27560.50676
27560.76913
27560.98948
27561.17425
27561.32873
27561.45722
27561.56322
27561.64958
27561.71854
27561.77189
27561.81098
27561.83678
27561.84995
0.02041856511
0.05319193466
0.073875966
0.08005060697
0.06759895887
0.04832108777
0.0374103759
0.04400977962
27276.24708
27315.33976
27352.54996
27386.86869
27417.53427
27444.209
27466.90252
27485.86282
27501.47419
27514.17798
27524.41872
27532.61175
27539.12676
27544.28199
27548.34487
27551.5362
27554.03585
27555.98891
27557.51147
27558.69591
27559.61536
27560.32754
27560.87786
27561.30197
27561.62782
27561.8773
27562.0675
27562.21181
27562.32065
27562.40218
27562.46276
27562.50733
27562.53975
27562.56304
27562.57952
27562.59099
27562.59886
27562.60417
27562.60774
27562.61015
27562.61182
27562.613
0.01418735956
0.0436128093
0.05195937228
0.06071376616
0.06455818254
0.05638191087
0.04191230985
0.02449526025
27276.762
27322.01031
27364.6344
27403.16606
27436.67947
27464.92338
27488.12385
27506.78583
27521.53734
27533.02492
27541.85256
27548.55212
27553.57384
27557.28845
27559.99515
27561.93176
27563.28513
27564.20065
27564.79063
27565.14123
27565.31814
27565.37113
27565.33772
27565.24598
27565.11675
27564.9654
27564.80312
27564.63797
27564.47563
27564.32006
27564.1739
27564.03886
27563.91596
27563.80574
27563.70841
27563.62398
27563.5523
27563.49318
27563.44639
27563.41172
27563.38898
27563.37806
0.0004264543123
-0.02378429311
-0.09311599589
-0.1181747885
-0.07147330266
-0.008879673942
-0.003506282137
-0.0377494827
27277.27908
27331.07603
27380.80788
27424.47853
27461.09202
27490.68013
27513.88346
27531.61964
27544.86514
27554.53273
27561.41553
27566.17143
27569.32911
27571.30392
27572.41663
27572.91171
27572.97338
27572.73907
27572.31035
27571.76145
27571.14605
27570.50238
27569.8572
27569.22878
27568.62914
27568.06581
27567.54302
27567.06274
27566.62531
27566.23001
27565.87544
27565.55979
27565.28103
27565.03711
27564.826
27564.64581
27564.49481
27564.37148
27564.27456
27564.20298
27564.15598
27564.13303
-0.01351407295
-0.1560251689
-0.3721565452
-0.4975258178
-0.4384536718
-0.278088547
-0.1726519683
-0.032687746
27277.25913
27343.78143
27403.03604
27452.84323
27492.52718
27522.82062
27545.11028
27560.94491
27571.77196
27578.82657
27583.10669
27585.39021
27586.26849
27586.18267
27585.45691
27584.32621
27582.95874
27581.47308
27579.9514
27578.44937
27577.00344
27575.63639
27574.3612
27573.1841
27572.10658
27571.12704
27570.24183
27569.44609
27568.73431
27568.10072
27567.53958
27567.04535
27566.61283
27566.23725
27565.91427
27565.64005
27565.41125
27565.22502
27565.079
27564.97132
27564.90058
27564.86585
-0.01816609079
-0.2571047057
-0.5709851747
-0.7710421828
-0.7547561402
-0.5883086003
-0.3668677276
0.2132360523
27278.5332
27363.02162
27434.70368
27491.32433
27533.34983
27562.96437
27582.79304
27595.27927
27602.45292
27605.89658
27606.79599
27606.01568
27604.1733
27601.70262
27598.90331
27595.97865
27593.06344
27590.24425
27587.57399
27585.08235
27582.78318
27580.67975
27578.7684
27577.04113
27575.48738
27574.0953
27572.85256
27571.74691
27570.76657
27569.90046
27569.13831
27568.47073
27567.88926
27567.38635
27566.95536
27566.59047
27566.28674
27566.03997
27565.84674
27565.70435
27565.6108
27565.56477
-0.03130902399
-0.256885647
-0.5438651188
-0.7318783578
-0.727776475
-0.5872746037
-0.348906083
0.6497518685
27282.42417
27394.01481
27481.42286
27544.3922
27586.5815
27612.89523
27627.82067
27634.92887
27636.86636
27635.51302
27632.16686
27627.70483
27622.70784
27617.55249
27612.47625
27607.62279
27603.07327
27598.86762
27595.0191
27591.52402
27588.36838
27585.53227
27582.99278
27580.72592
27578.70784
27576.91559
27575.32758
27573.92383
27572.68607
27571.59774
27570.64397
27569.81152
27569.08866
27568.46512
27567.93192
27567.48135
27567.10687
27566.803
27566.56527
27566.39018
27566.27515
27566.21848
-0.07090953608
-0.2147692805
-0.3979731363
-0.5220458295
-0.520042812
-0.3744725491
-0.1834649748
0.957282617
27295.36625
27447.92336
27552.56918
27618.23407
27655.69103
27674.21926
27680.67052
27679.75348
27674.57403
27667.12496
27658.65573
27649.93065
27641.40217
27633.32454
27625.82758
27618.96412
27612.74031
27607.13498
27602.11188
27597.62738
27593.63522
27590.08938
27586.94578
27584.16323
27581.70378
27579.53298
27577.61973
27575.93619
27574.45758
27573.16192
27572.02982
27571.04424
27570.19032
27569.4551
27568.82743
27568.29775
27567.85802
27567.50151
27567.22278
27567.01759
27566.88279
27566.81632
-0.1110748506
-0.1896795498
-0.2862810365
-0.350727148
-0.3451735191
-0.2262103476
-0.1545877084
0.8191803281
27344.92277
27548.40215
27662.69667
27720.29143
27743.74164
27747.63125
27740.89707
27728.8465
27714.55553
27699.76004
27685.40262
27671.96157
27659.64702
27648.51709
27638.54652
27629.66686
27621.78992
27614.82116
27608.66715
27603.23954
27598.45689
27594.24543
27590.53898
27587.27868
27584.4124
27581.89417
27579.68355
27577.74505
27576.04759
27574.56401
27573.27063
27572.14685
27571.1748
27570.3391
27569.62652
27569.02582
27568.52754
27568.12385
27567.8084
27567.57625
27567.42375
27567.34851
-0.1353490277
-0.1832248805
-0.2377393834
-0.2730744689
-0.2731693143
-0.2023867489
-0.1812589085
0.2366786546
27513.21346
27736.80542
27829.58079
27856.53328
27851.38128
27831.68546
27806.45153
27780.18707
27755.04603
27731.95996
27711.23511
27692.86744
27676.7084
27662.55131
27650.1755
27639.36782
27629.93231
27621.69357
27614.49706
27608.20779
27602.70851
27597.89762
27593.68724
27590.00136
27586.77427
27583.94908
27581.47661
27579.31426
27577.42515
27575.77738
27574.34335
27573.09923
27572.0245
27571.10154
27570.31531
27569.65306
27569.10409
27568.65956
27568.31235
27568.05689
27567.88909
27567.80627
-0.1500900077
-0.1832260291
-0.2188072734
-0.2440399228
-0.2489004184
-0.2233837759
-0.2234035224
-0.3170970608
27930.38604
28055.15679
28062.44534
28024.96058
27973.60777
27921.3006
27873.04867
27830.41079
27793.48518
27761.80079
27734.71179
27711.56567
27691.76864
27674.80503
27660.23713
27647.69743
27636.87878
27627.52469
27619.4207
27612.3871
27606.27282
27600.95046
27596.31219
27592.26652
27588.7355
27585.65261
27582.96093
27580.61164
27578.56282
27576.77847
27575.22764
27573.88374
27572.72396
27571.72881
27570.88171
27570.16862
27569.5778
27569.09959
27568.72618
27568.4515
27568.27109
27568.18202
-0.159255045
-0.1846903328
-0.2111033372
-0.2342134824
-0.2436637255
-0.2610442026
-0.2487586356
-0.6612178536
28635.59693
28490.96532
28340.28809
28207.34625
28096.82846
28006.87811
27934.03946
27874.92555
27826.68449
27787.04684
27754.24592
27726.91512
27703.99583
27684.6635
27668.27111
27654.30666
27642.36146
27632.10654
27623.27487
27615.64809
27609.04628
27603.32031
27598.34574
27594.01824
27590.24988
27586.96626
27584.10422
27581.60993
27579.43745
27577.54752
27575.9065
27574.48563
27573.26033
27572.20961
27571.31567
27570.56349
27569.94052
27569.43643
27569.0429
27568.75347
27568.56338
27568.46952
-0.1646411428
-0.1864591061
-0.2085106484
-0.2322211716
-0.2414013375
-0.2885360029
-0.212899106
-0.8289887254
29430.60276
28934.12841
28600.48377
28367.34096
28199.49007
28075.34393
27981.30324
27908.56502
27851.2784
27805.45474
27768.30901
27737.85259
27712.63591
27691.58216
27673.87751
27658.89715
27646.15453
27635.26591
27625.92505
27617.88505
27610.94496
27604.93986
27599.73339
27595.21204
27591.28078
27587.85966
27584.8811
27582.28779
27580.03097
27578.0691
27576.3667
27574.89349
27573.62365
27572.53518
27571.60945
27570.83074
27570.18597
27569.66433
27569.25717
27568.95773
27568.76108
27568.66397
-0.1671811435
-0.1876183237
-0.2078453044
-0.2321913404
-0.2388683056
-0.2979760443
-0.1574563895
-0.8511489032
29961.6891
29217.31685
28760.03365
28461.97581
28258.40728
28113.68066
28007.2502
27926.74404
27864.40383
27815.18131
27775.68074
27743.54914
27717.11249
27695.15159
27676.75979
27661.25029
27648.0942
27636.87823
27627.2752
27619.02303
27611.90966
27605.76188
27600.43707
27595.81695
27591.80281
27588.31181
27585.27409
27582.63055
27580.33098
27578.33267
27576.59919
27575.0995
27573.80713
27572.69958
27571.75778
27570.96567
27570.30987
27569.77938
27569.36533
27569.06084
27568.86088
27568.76213
-0.1671811364
-0.1876183177
-0.2078452998
-0.2321913363
-0.2388683127
-0.2979760381
-0.1574564547
-0.8511448875
29961.68949
29217.31707
28760.03378
28461.97588
28258.40732
28113.68066
28007.2502
27926.74403
27864.40382
27815.18131
27775.68074
27743.54915
27717.11252
27695.15163
27676.75984
27661.25035
27648.09427
27636.87832
27627.27529
27619.02314
27611.90978
27605.76201
27600.43721
27595.8171
27591.80296
27588.31197
27585.27426
27582.63072
27580.33116
27578.33285
27576.59938
27575.09969
27573.80733
27572.69978
27571.75798
27570.96588
27570.31009
27569.77959
27569.36554
27569.06106
27568.8611
27568.76235
-0.1646411232
-0.1864590882
-0.2085106322
-0.2322211563
-0.2414013554
-0.2885360073
-0.2128992849
-0.8289797002
29430.60352
28934.12897
28600.48413
28367.34116
28199.49016
28075.34394
27981.30321
27908.56498
27851.27836
27805.45472
27768.30902
27737.85263
27712.63599
27691.58228
27673.87767
27658.89734
27646.15476
27635.26617
27625.92534
27617.88537
27610.94531
27604.94025
27599.7338
27595.21247
27591.28124
27587.86014
27584.88161
27582.28831
27580.03152
27578.06966
27576.36727
27574.89408
27573.62425
27572.5358
27571.61007
27570.83138
27570.18661
27569.66498
27569.25782
27568.95839
27568.76174
27568.66464
-0.1592550181
-0.1846903037
-0.2111033028
-0.2342134469
-0.2436637231
-0.2610442583
-0.2487588756
-0.6612067834
28635.59794
28490.96616
28340.28864
28207.34654
28096.82856
28006.87808
27934.03938
27874.92545
27826.68441
27787.0468
27754.24592
27726.91519
27703.99596
27684.6637
27668.27137
27654.30698
27642.36185
27632.10698
27623.27537
27615.64863
27609.04688
27603.32095
27598.34643
27594.01897
27590.25065
27586.96707
27584.10506
27581.6108
27579.43836
27577.54845
27575.90746
27574.48662
27573.26133
27572.21063
27571.31671
27570.56455
27569.94159
27569.43752
27569.044
27568.75457
27568.56448
27568.47063
-0.150089982
-0.1832259899
-0.2188072123
-0.244039846
-0.2489003342
-0.2233838327
-0.2234037497
-0.3170857167
27930.38754
28055.15798
28062.44606
28024.96089
27973.60781
27921.30048
27873.04848
27830.41061
27793.48503
27761.80071
27734.71179
27711.56576
27691.76882
27674.80531
27660.2375
27647.69789
27636.87932
27627.5253
27619.42139
27612.38787
27606.27366
27600.95136
27596.31316
27592.26754
27588.73658
27585.65375
27582.96211
27580.61286
27578.56409
27576.77978
27575.22899
27573.88512
27572.72537
27571.73025
27570.88317
27570.1701
27569.57931
27569.10111
27568.72771
27568.45304
27568.27264
27568.18357
-0.1353490125
-0.1832248304
-0.2377392812
-0.2730743024
-0.273169093
-0.2023866431
-0.1812590481
0.2366934391
27513.21633
27736.80713
27829.5816
27856.53349
27851.38115
27831.68516
27806.45118
27780.18676
27755.04579
27731.95983
27711.2351
27692.86755
27676.70863
27662.55167
27650.17598
27639.36841
27629.933
27621.69437
27614.49796
27608.20878
27602.70959
27597.89878
27593.68848
27590.00268
27586.77566
27583.95054
27581.47813
27579.31584
27577.42679
27575.77907
27574.34508
27573.101
27572.02631
27571.10339
27570.3172
27569.65497
27569.10603
27568.66152
27568.31433
27568.05887
27567.89108
27567.80827
-0.1110748507
-0.1896794884
-0.2862808735
-0.350726818
-0.3451730808
-0.226209826
-0.1545874672
0.819203132
27344.92744
27548.40412
27662.69726
27720.29129
27743.74115
27747.63064
27740.89648
27728.84601
27714.55517
27699.75984
27685.40258
27671.96169
27659.6473
27648.51753
27638.5471
27629.66758
27621.79078
27614.82214
27608.66825
27603.24075
27598.45822
27594.24685
27590.5405
27587.2803
27584.4141
27581.89596
27579.68541
27577.74698
27576.04959
27574.56608
27573.27276
27572.14902
27571.17703
27570.34137
27569.62883
27569.02816
27568.52992
27568.12625
27567.81082
27567.57868
27567.42619
27567.35095
-0.07090953523
-0.2147692355
-0.3979729608
-0.5220453685
-0.5200421627
-0.374471649
-0.183464029
0.9573028768
27295.36934
27447.9243
27552.5689
27618.23319
27655.68996
27674.21821
27680.66962
27679.75277
27674.57353
27667.12468
27658.65566
27649.9308
27641.40251
27633.32506
27625.82828
27618.96499
27612.74134
27607.13615
27602.1132
27597.62883
27593.6368
27590.09107
27586.94759
27584.16514
27581.70581
27579.5351
27577.62194
27575.93849
27574.45996
27573.16437
27572.03233
27571.04682
27570.19295
27569.45779
27568.83016
27568.30053
27567.86083
27567.50435
27567.22565
27567.02048
27566.88569
27566.81922
-0.03130900554
-0.2568857195
-0.5438651353
-0.73187814
-0.72777609
-0.5872739032
-0.3489048678
0.6497597263
27282.42467
27394.01384
27481.42106
27544.39019
27586.57962
27612.89363
27627.81939
27634.92792
27636.86572
27635.51267
27632.16678
27627.705
27622.70824
27617.55311
27612.47708
27607.62381
27603.07447
27598.86899
27595.02063
27591.5257
27588.37021
27585.53424
27582.99488
27580.72815
27578.71018
27576.91804
27575.33014
27573.92649
27572.68882
27571.60057
27570.64688
27569.81451
27569.09172
27568.46823
27567.93508
27567.48457
27567.11013
27566.80629
27566.56858
27566.39352
27566.2785
27566.22183
-0.01816610238
-0.257104965
-0.5709855696
-0.7710424618
-0.754756378
-0.5883089356
-0.3668675051
0.2132288143
27278.53181
27363.01808
27434.69976
27491.32085
27533.347
27562.96216
27582.79138
27595.27809
27602.45216
27605.89618
27606.79591
27606.0159
27604.17379
27601.70335
27598.90427
27595.97983
27593.06482
27590.24582
27587.57574
27585.08427
27582.78527
27580.682
27578.7708
27577.04366
27575.49005
27574.09809
27572.85547
27571.74993
27570.7697
27569.90369
27569.14162
27568.47412
27567.89273
27567.38989
27566.95896
27566.59413
27566.29044
27566.04371
27565.85051
27565.70814
27565.61461
27565.56859
-0.01351411046
-0.1560254324
-0.3721570701
-0.4975264613
-0.4384543265
-0.27808917
-0.1726523034
-0.03270793109
27277.25631
27343.77357
27403.0292
27452.83806
27492.52339
27522.81787
27545.10833
27560.94357
27571.77112
27578.82616
27583.10664
27585.39049
27586.26907
27586.18353
27585.45801
27584.32756
27582.96031
27581.47486
27579.95339
27578.45154
27577.0058
27575.63892
27574.3639
27573.18695
27572.10958
27571.13017
27570.24509
27569.44948
27568.73781
27568.10433
27567.54329
27567.04916
27566.61673
27566.24122
27565.91831
27565.64415
27565.4154
27565.22921
27565.08323
27564.97557
27564.90485
27564.87013
0.0004264248646
-0.02378438097
-0.09311622561
-0.1181750962
-0.07147356523
-0.008879845256
-0.003506399444
-0.03801371648
27277.24277
27331.05778
27380.79744
27424.47197
27461.08764
27490.67711
27513.88137
27531.61825
27544.8643
27554.53235
27561.41556
27566.17181
27569.32981
27571.30491
27572.4179
27572.91324
27572.97515
27572.74108
27572.31257
27571.76388
27571.14868
27570.5052
27569.8602
27569.23195
27568.63247
27568.06929
27567.54665
27567.0665
27566.6292
27566.23402
27565.87957
27565.56401
27565.28535
27565.04152
27564.83048
27564.65036
27564.49941
27564.37614
27564.27925
27564.20771
27564.16072
27564.13778
0.01418734461
0.04361280269
0.05195933951
0.06071370859
0.06455813104
0.05638190255
0.04191229715
0.02420566636
27276.7224
27321.99188
27364.62429
27403.15981
27436.6753
27464.92051
27488.12188
27506.78453
27521.53659
27533.02464
27541.8527
27548.55262
27553.57467
27557.2896
27559.9966
27561.93349
27563.28711
27564.20288
27564.7931
27565.14393
27565.32105
27565.37424
27565.34103
27565.24947
27565.12042
27564.96924
27564.80711
27564.64211
27564.47991
27564.32447
27564.17844
27564.04351
27563.92071
27563.81058
27563.71334
27563.62898
27563.55737
27563.4983
27563.45155
27563.41691
27563.3942
27563.38329
0.02041855561
0.05319190059
0.07387590493
0.08005052125
0.06759888178
0.04832106996
0.03741040758
0.04399570556
27276.24519
27315.33392
27352.54467
27386.86452
27417.53111
27444.20667
27466.90087
27485.86175
27501.47362
27514.17785
27524.419
27532.61241
27539.12777
27544.28332
27548.34651
27551.53812
27554.03805
27555.99138
27557.51419
27558.69887
27559.61855
27560.33095
27560.88148
27561.30579
27561.63183
27561.88149
27562.07187
27562.21633
27562.32533
27562.407
27562.46771
27562.5124
27562.54494
27562.56833
27562.5849
27562.59645
27562.60439
27562.60976
27562.61338
27562.61583
27562.61751
27562.61871
0.01934453978
0.04618324536
0.06385288535
0.06777107872
0.05846843344
0.04593071527
0.03824832638
0.04560777431
27276.18458
27310.4115
27343.35458
27374.22058
27402.37649
27427.47333
27449.41289
27468.28814
27484.31877
27497.79486
27509.0339
27518.35118
27526.04166
27532.37045
27537.56905
27541.83553
27545.33672
27548.21151
27550.57458
27552.52
27554.12456
27555.45078
27556.54942
27557.46169
27558.22098
27558.8544
27559.38393
27559.82746
27560.19953
27560.51199
27560.77451
27560.99498
27561.17988
27561.33447
27561.46306
27561.56915
27561.65558
27561.72461
27561.77801
27561.81713
27561.84297
27561.85614
0.01602419171
0.03831334387
0.05352134264
0.05872613772
0.05510360437
0.04823805493
0.0427620976
0.04656408137
27276.17321
27306.66634
27336.24073
27364.28551
27390.27994
27413.89662
27434.98898
27453.55926
27469.71882
27483.64952
27495.5713
27505.71757
27514.31818
27521.58872
27527.72474
27532.89929
27537.26285
27540.94448
27544.05378
27546.68316
27548.91012
27550.79942
27552.40503
27553.77188
27554.93735
27555.93256
27556.78341
27557.51148
27558.1348
27558.6684
27559.12485
27559.51468
27559.84667
27560.12818
27560.3653
27560.56312
27560.72579
27560.8567
27560.95853
27561.03337
27561.08272
27561.10756
0.01279693029
0.03090999716
0.04392364422
0.04994852583
0.04976432406
0.04645535111
0.04333997492
0.04495718691
27276.16346
27303.75465
27330.65602
27356.40003
27380.5605
27402.84382
27423.08697
27441.2412
27457.34805
27471.51359
27483.88485
27494.63039
27503.9256
27511.94244
27518.84284
27524.77507
27529.87198
27534.25087
27538.01402
27541.24991
27544.03456
27546.433
27548.50067
27550.28475
27551.82533
27553.15646
27554.30706
27555.3017
27556.16125
27556.90344
27557.54334
27558.09374
27558.56551
27558.96783
27559.30844
27559.59383
27559.82937
27560.01948
27560.16769
27560.27674
27560.34862
27560.38465
0.0100400225
0.02452892673
0.03543098513
0.04149363308
0.04320305607
0.04219719796
0.04105297177
0.04117917709
27276.15436
27301.46045
27326.22842
27350.09761
27372.71782
27393.83094
27413.27382
27430.97065
27446.91889
27461.1724
27473.82472
27484.99425
27494.8122
27503.41345
27510.93007
27517.48714
27523.20019
27528.17407
27532.50265
27536.26907
27539.54642
27542.39859
27544.88119
27547.04244
27548.9241
27550.56226
27551.98809
27553.22845
27554.30652
27555.24225
27556.05282
27556.75298
27557.35536
27557.87077
27558.3084
27558.67598
27558.98
27559.22579
27559.41765
27559.5589
27559.65201
27559.69858
0.007817618413
0.01949498579
0.02866616626
0.03447072145
0.03718353097
0.03756476563
0.03762571888
0.03680285492
27276.1463
27299.63954
27322.69951
27345.04392
27366.382
27386.48819
27405.20673
27422.44885
27438.18477
27452.43285
27465.24794
27476.71035
27486.91626
27495.96991
27503.97777
27511.04418
27517.26857
27522.74365
27527.55455
27531.77844
27535.48465
27538.73499
27541.58431
27544.08101
27546.2677
27548.18178
27549.85598
27551.31892
27552.59559
27553.70772
27554.67424
27555.51152
27556.23373
27556.85307
27557.37998
27557.8233
27558.19047
27558.48766
27558.71983
27558.89086
27559.00359
27559.0599
0.006108887491
0.01561912468
0.02338943486
0.02877331526
0.03188098363
0.03303191297
0.03377415552
0.03249698959
27276.13911
27298.19209
27319.88616
27340.99643
27361.27797
27380.53308
27398.61616
27415.43347
27430.93881
27445.12672
27458.02439
27469.68362
27480.17329
27489.57299
27497.96778
27505.44419
27512.08724
27517.97847
27523.19457
27527.80665
27531.87992
27535.47365
27538.64132
27541.43091
27543.88527
27546.04254
27547.93652
27549.59711
27551.05064
27552.3203
27553.42639
27554.38665
27555.21653
27555.92939
27556.53673
27557.04836
27557.47255
27557.81617
27558.08479
27558.28274
27558.41322
27558.47835
0.00483387745
0.01267444368
0.01930561734
0.02420875506
0.02737834151
0.02891130533
0.02999291639
0.02856238916
27276.13318
27297.04755
27317.6567
27337.77763
27357.20038
27375.75006
27393.2915
27409.73028
27425.01064
27439.11127
27452.03983
27463.82707
27474.52102
27484.18178
27492.87705
27500.67847
27507.65873
27513.88946
27519.43969
27524.3748
27528.75592
27532.6396
27536.07767
27539.11732
27541.80127
27544.16796
27546.25187
27548.08377
27549.69104
27551.09794
27552.32589
27553.39371
27554.3179
27555.11279
27555.79077
27556.36245
27556.83681
27557.22132
27557.52204
27557.74371
27557.88985
27557.96276
0.003902281652
0.01047289292
0.01619507699
0.02063306214
0.0237092568
0.02539980617
0.02661287151
0.025177125
27276.12819
27296.15518
27315.91557
27335.25703
27353.99591
27371.97539
27389.0697
27405.1858
27420.26257
27434.26833
27447.19714
27459.06443
27469.90263
27479.75683
27488.68103
27496.73482
27503.98072
27510.48198
27516.301
27521.49806
27526.13054
27530.25237
27533.91369
27537.16074
27540.03585
27542.57753
27544.82062
27546.7965
27548.53327
27550.05601
27551.38701
27552.54594
27553.55012
27554.41467
27555.1527
27555.77547
27556.29254
27556.71188
27557.03996
27557.28186
27557.44135
27557.52089
0.003237805301
0.008865844334
0.01388616731
0.01791868957
0.02084370453
0.02257202915
0.02381011374
0.02243973575
27276.12525
27295.47865
27314.59349
27333.33907
27351.55095
27369.08603
27385.82635
27401.68094
27416.58587
27430.50281
27443.41649
27455.33153
27466.26894
27476.26265
27485.35624
27493.59997
27501.04831
27507.75778
27513.78534
27519.18702
27524.01699
27528.32687
27532.16524
27535.5774
27538.6052
27541.28705
27543.65799
27545.74976
27547.59098
27549.20733
27550.62171
27551.85446
27552.92353
27553.84464
27554.63147
27555.29579
27555.84762
27556.29532
27556.64568
27556.90407
27557.07443
27557.15938
0.002783457374
0.007744890653
0.01225359669
0.01596684248
0.01874159075
0.02045422392
0.0216725497
0.02037936559
27276.1231
27294.99164
27313.64082
27331.95491
27349.78292
27366.99162
27383.46898
27399.12606
27413.89756
27427.74102
27440.63503
27452.57687
27463.57964
27473.66937
27482.88214
27491.26142
27498.85571
27505.71651
27511.89661
27517.44879
27522.4247
27526.87409
27530.84426
27534.3797
27537.52181
27540.30886
27542.77593
27544.955
27546.87502
27548.56208
27550.03954
27551.32819
27552.44644
27553.41045
27554.23432
27554.93021
27555.50845
27555.9777
27556.34501
27556.61594
27556.79458