/*--------------------------------*- C++ -*----------------------------------*\
  =========                 |
  \\      /  F ield         | OpenFOAM: The Open Source CFD Toolbox
   \\    /   O peration     | Website:  https://openfoam.org
    \\  /    A nd           | Version:  6
     \\/     M anipulation  |
\*---------------------------------------------------------------------------*/
FoamFile
{
    version     2.0;
    format      ascii;
    class       surfaceScalarField;
    location    "0.03";
    object      phi;
}
// * * * * * * * * * * * * * * * * * * * * * * * * * * * * * * * * * * * * * //

dimensions      [0 3 -1 0 0 0 0];

internalField   nonuniform List<scalar> 
4900
(
-5.82385799e-09
-2.367756688e-10
-5.29264656e-09
-5.312114329e-10
-4.511139684e-09
-7.815068905e-10
-3.526533976e-09
-9.846057308e-10
-2.392243379e-09
-1.134290628e-09
-1.169888239e-09
-1.222355175e-09
-3.113594067e-11
-1.138752338e-09
2.31815977e-17
-3.113600418e-11
-1.835327871e-21
-1.623106691e-25
-1.819806611e-21
-1.552125932e-23
-1.789443797e-21
-3.036650647e-23
-1.745270158e-21
-4.418193783e-23
-1.688730635e-21
-5.655215398e-23
-1.621583412e-21
-6.716406944e-23
-1.545784987e-21
-7.581943575e-23
-1.463375203e-21
-8.243492089e-23
-1.376372643e-21
-8.703177622e-23
-1.286687649e-21
-8.97182424e-23
-1.196056749e-21
-9.066812102e-23
-1.105999295e-21
-9.009858614e-23
-1.017794679e-21
-8.82495898e-23
-9.324770453e-22
-8.536637361e-23
-8.50843655e-22
-8.168581442e-23
-7.734729689e-22
-7.742670786e-23
-7.007488323e-22
-7.278366372e-23
-6.328877245e-22
-6.792404288e-23
-5.699666967e-22
-6.298726884e-23
-5.119502809e-22
-5.808585602e-23
-4.587152399e-22
-5.330756973e-23
-4.100725059e-22
-4.871823647e-23
-3.657860295e-22
-4.436483419e-23
-3.25588525e-22
-4.027859597e-23
-2.891942757e-22
-3.64779494e-23
-2.56309272e-22
-3.297118503e-23
-2.266390037e-22
-2.97588005e-23
-1.998942488e-22
-2.683550537e-23
-1.757951861e-22
-2.419189678e-23
-1.540741357e-22
-2.181583172e-23
-1.34477196e-22
-1.969352994e-23
-1.16765011e-22
-1.781044456e-23
-1.007128617e-22
-1.615193741e-23
-8.61102421e-23
-1.470379405e-23
-7.276004951e-23
-1.345261059e-23
-6.047748545e-23
-1.238608191e-23
-4.908873682e-23
-1.149322202e-23
-3.842946242e-23
-1.076455861e-23
-2.834301964e-23
-1.019239277e-23
-1.867808473e-23
-9.771405509e-24
-9.28428277e-24
-9.500647934e-24
-9.391358103e-24
-6.124239089e-09
-4.921047574e-10
-5.555605333e-09
-1.099845213e-09
-4.724796625e-09
-1.612315641e-09
-3.684408158e-09
-2.024994251e-09
-2.490644034e-09
-2.328054814e-09
-1.211384739e-09
-2.501614535e-09
-2.858242487e-11
-2.321554714e-09
6.986327749e-18
-5.971847263e-11
-1.850709241e-21
-3.707790318e-25
-1.834649512e-21
-3.158835765e-23
-1.803257149e-21
-6.177431395e-23
-1.757638805e-21
-8.982368059e-23
-1.699341553e-21
-1.148803824e-22
-1.630238354e-21
-1.363056919e-22
-1.55240057e-21
-1.537030088e-22
-1.467972589e-21
-1.669159759e-22
-1.379059968e-21
-1.760046661e-22
-1.287638602e-21
-1.812069683e-22
-1.195488403e-21
-1.828926575e-22
-1.104151515e-21
-1.815166641e-22
-1.014912637e-21
-1.775763724e-22
-9.287975704e-22
-1.715759152e-22
-8.465855124e-22
-1.639987601e-22
-7.68830753e-22
-1.55288602e-22
-6.958899006e-22
-1.458377231e-22
-6.279515057e-22
-1.359815336e-22
-5.650657159e-22
-1.259978519e-22
-5.071723175e-22
-1.161095463e-22
-4.541261358e-22
-1.064893361e-22
-4.057192544e-22
-9.726578303e-23
-3.616998785e-22
-8.852973771e-23
-3.217879153e-22
-8.034072533e-23
-2.856875096e-22
-7.273293106e-23
-2.530968571e-22
-6.572059014e-23
-2.23715658e-22
-5.930269145e-23
-1.972505762e-22
-5.346697691e-23
-1.734190492e-22
-4.819326713e-23
-1.519517585e-22
-4.3456172e-23
-1.32594035e-22
-3.922725929e-23
-1.151064307e-22
-3.547675889e-23
-9.926464944e-23
-3.21748786e-23
-8.485899553e-23
-2.929280216e-23
-7.169346458e-23
-2.680343294e-23
-5.958457716e-23
-2.468193987e-23
-4.836003415e-23
-2.290615596e-23
-3.785726952e-23
-2.145687569e-23
-2.792202755e-23
-2.03180905e-23
-1.840738341e-23
-1.947715301e-23
-9.175000399e-24
-1.892453415e-23
-1.865089516e-23
-6.708470322e-09
-7.887591882e-10
-6.060530238e-09
-1.747785317e-09
-5.131871666e-09
-2.540974245e-09
-3.9828365e-09
-3.174029456e-09
-2.677601307e-09
-3.633290053e-09
-1.291435229e-09
-3.88778066e-09
-3.066426682e-11
-3.58232572e-09
-1.490777987e-19
-9.038276063e-11
-1.882005277e-21
-5.598436151e-25
-1.864830505e-21
-4.876916532e-23
-1.83130225e-21
-9.531543292e-23
-1.782692325e-21
-1.38453344e-22
-1.720764887e-21
-1.768341415e-22
-1.647634893e-21
-2.094684957e-22
-1.565613838e-21
-2.357632964e-22
-1.477062467e-21
-2.555129345e-22
-1.384264116e-21
-2.688548823e-22
-1.289326562e-21
-2.762025755e-22
-1.194114892e-21
-2.781684701e-22
-1.100213739e-21
-2.754879414e-22
-1.008914593e-21
-2.689515063e-22
-9.2122263e-22
-2.593496031e-22
-8.378773126e-22
-2.474314041e-22
-7.59381549e-22
-2.338771499e-22
-6.860350988e-22
-2.192822637e-22
-6.179689376e-22
-2.041509323e-22
-5.551782736e-22
-1.888967343e-22
-4.975527504e-22
-1.738480963e-22
-4.449030376e-22
-1.592567054e-22
-3.969835077e-22
-1.453074146e-22
-3.535110382e-22
-1.321285645e-22
-3.141801935e-22
-1.198019885e-22
-2.786751651e-22
-1.083722402e-22
-2.466788986e-22
-9.785479673e-23
-2.17879844e-22
-8.824313913e-23
-1.919767409e-22
-7.951471618e-23
-1.686818133e-22
-7.163586141e-23
-1.477226983e-22
-6.456576893e-23
-1.288433869e-22
-5.825965024e-23
-1.118044074e-22
-5.267119609e-23
-9.638243853e-23
-4.77544622e-23
-8.236950304e-23
-4.346528656e-23
-6.957186145e-23
-3.976233377e-23
-5.780869788e-23
-3.660784812e-23
-4.691067436e-23
-3.396818396e-23
-3.671842149e-23
-3.181416663e-23
-2.708104264e-23
-3.012131436e-23
-1.785471775e-23
-2.88699022e-23
-8.901278345e-24
-2.804474533e-23
-2.763453048e-23
-7.615787472e-09
-1.153417595e-09
-6.83962929e-09
-2.523943515e-09
-5.754475762e-09
-3.626127799e-09
-4.433336795e-09
-4.495168453e-09
-2.953589576e-09
-5.1130373e-09
-1.405259896e-09
-5.436110363e-09
-3.23102062e-11
-4.955275424e-09
-2.263272035e-18
-1.226929633e-10
-1.930329732e-21
-7.692911267e-25
-1.911368899e-21
-6.773593956e-23
-1.874433437e-21
-1.322635262e-22
-1.821068189e-21
-1.918379856e-22
-1.753396283e-21
-2.445319264e-22
-1.673928667e-21
-2.889683868e-22
-1.58536416e-21
-3.243664117e-22
-1.490406475e-21
-3.505154943e-22
-1.391614862e-21
-3.676975601e-22
-1.291296122e-21
-3.765784815e-22
-1.191438304e-21
-3.7808946e-22
-1.093681245e-21
-3.733140708e-22
-9.993164257e-22
-3.633911784e-22
-9.093078236e-22
-3.494387151e-22
-8.243260282e-22
-3.324992332e-22
-7.447891778e-22
-3.135054162e-22
-6.709058304e-22
-2.932622597e-22
-6.027163781e-22
-2.724421093e-22
-5.401308914e-22
-2.515888579e-22
-4.82962282e-22
-2.311280848e-22
-4.309543873e-22
-2.113805453e-22
-3.838050662e-22
-1.92577065e-22
-3.411846848e-22
-1.748734727e-22
-3.027505228e-22
-1.583646829e-22
-2.681576894e-22
-1.430974155e-22
-2.370671288e-22
-1.29081309e-22
-2.091512534e-22
-1.162983723e-22
-1.840976828e-22
-1.047108438e-22
-1.616114976e-22
-9.426759335e-23
-1.414163487e-22
-8.490924202e-23
-1.232547037e-22
-7.65721825e-23
-1.068874534e-22
-6.919168026e-23
-9.209305681e-23
-6.270422109e-23
-7.866636201e-23
-5.704925254e-23
-6.641720804e-23
-5.217044694e-23
-5.516888825e-23
-4.801659326e-23
-4.475653496e-23
-4.454220597e-23
-3.502547086e-23
-4.170791928e-23
-2.582955475e-23
-3.948071448e-23
-1.702950448e-23
-3.783400632e-23
-8.491034615e-24
-3.67476112e-23
-3.62077282e-23
-8.887758275e-09
-1.620466931e-09
-7.921941905e-09
-3.489759898e-09
-6.608314071e-09
-4.939755652e-09
-5.038237069e-09
-6.065245475e-09
-3.310871151e-09
-6.840403234e-09
-1.542714388e-09
-7.204267134e-09
-3.417922266e-11
-6.463810584e-09
-1.565316887e-18
-1.568721722e-10
-1.997450035e-21
-1.030774096e-24
-1.975885121e-21
-8.930678935e-23
-1.933998288e-21
-1.741629745e-22
-1.873755263e-21
-2.521003775e-22
-1.797828848e-21
-3.204841875e-22
-1.70932564e-21
-3.775038291e-22
-1.611514646e-21
-4.222159666e-22
-1.507591859e-21
-4.544831016e-22
-1.400500424e-21
-4.748399978e-22
-1.292812503e-21
-4.843235024e-22
-1.186668593e-21
-4.84296467e-22
-1.083763927e-21
-4.762877268e-22
-9.853691614e-22
-4.618607095e-22
-8.923729931e-22
-4.425152998e-22
-8.05336226e-22
-4.196219342e-22
-7.245493748e-22
-3.943835772e-22
-6.500883931e-22
-3.67819778e-22
-5.818652497e-22
-3.407668593e-22
-5.196717185e-22
-3.138889024e-22
-4.632158941e-22
-2.876951592e-22
-4.121516846e-22
-2.625605653e-22
-3.661019476e-22
-2.387469916e-22
-3.246761283e-22
-2.16423674e-22
-2.874833038e-22
-1.956858903e-22
-2.541414934e-22
-1.765714138e-22
-2.24284004e-22
-1.590745916e-22
-1.9756347e-22
-1.431581016e-22
-1.736541363e-22
-1.287625681e-22
-1.522528291e-22
-1.158142773e-22
-1.330789664e-22
-1.042312555e-22
-1.158738848e-22
-9.392797473e-23
-1.003996922e-22
-8.481892693e-23
-8.643780736e-23
-7.682128581e-23
-7.378730101e-23
-6.985684497e-23
-6.226312752e-23
-6.385339206e-23
-5.169430463e-23
-5.874565153e-23
-4.19220836e-23
-5.447590339e-23
-3.279813347e-23
-5.099436317e-23
-2.418274593e-23
-4.825938864e-23
-1.594304054e-23
-4.623756568e-23
-7.951118074e-24
-4.490372838e-23
-4.424100297e-23
-1.057984031e-08
-2.23482119e-09
-9.345521003e-09
-4.724079219e-09
-7.71175219e-09
-6.573524478e-09
-5.795135307e-09
-7.981862368e-09
-3.731471983e-09
-8.904066562e-09
-1.683707218e-09
-9.252031894e-09
-3.682722961e-11
-8.110690558e-09
-3.937009139e-18
-1.936993883e-10
-2.085917448e-21
-1.253501072e-24
-2.06072546e-21
-1.145047148e-22
-2.011922556e-21
-2.229784964e-22
-1.942130044e-21
-3.219122594e-22
-1.854843783e-21
-4.077962987e-22
-1.754037088e-21
-4.783427637e-22
-1.643784443e-21
-5.325071783e-22
-1.527953921e-21
-5.703584508e-22
-1.409990722e-21
-5.928542086e-22
-1.292793089e-21
-6.015782432e-22
-1.178667648e-21
-5.98485015e-22
-1.069344389e-21
-5.856799861e-22
-9.660305858e-22
-5.652492888e-22
-8.69485627e-22
-5.391406863e-22
-7.801029541e-22
-5.090905527e-22
-6.979897472e-22
-4.765881061e-22
-6.230387871e-22
-4.42867287e-22
-5.549898334e-22
-4.089174322e-22
-4.934798459e-22
-3.75505416e-22
-4.380826069e-22
-3.43203661e-22
-3.883389556e-22
-3.124200403e-22
-3.437791057e-22
-2.834270444e-22
-3.039385334e-22
-2.563886416e-22
-2.683687995e-22
-2.313840203e-22
-2.366444853e-22
-2.084279292e-22
-2.08367218e-22
-1.874876654e-22
-1.83167569e-22
-1.684969589e-22
-1.607054367e-22
-1.513671041e-22
-1.406693808e-22
-1.359957226e-22
-1.227752593e-22
-1.222735404e-22
-1.067644239e-22
-1.100895329e-22
-9.24016611e-23
-9.933475587e-23
-7.947300638e-23
-8.990513193e-23
-6.778352255e-23
-8.170342595e-23
-5.715509911e-23
-7.464059762e-23
-4.742430819e-23
-6.863668756e-23
-3.844033569e-23
-6.362136107e-23
-3.006299229e-23
-5.953420801e-23
-2.216079744e-23
-5.632487652e-23
-1.460911909e-23
-5.395310319e-23
-7.288350811e-24
-5.238869576e-23
-5.161152182e-23
-1.276413634e-08
-3.053213064e-09
-1.116111843e-08
-6.327097136e-09
-9.088535101e-09
-8.646107811e-09
-6.695552584e-09
-1.037484489e-08
-4.1805159e-09
-1.141910324e-08
-1.791775898e-09
-1.164077188e-08
-4.223623439e-11
-9.860230201e-09
-9.086969458e-18
-2.359356164e-10
-2.199398233e-21
-1.460397124e-24
-2.169177678e-21
-1.447312094e-22
-2.110838823e-21
-2.813299726e-22
-2.028002673e-21
-4.047677844e-22
-1.925385035e-21
-5.104397939e-22
-1.80820184e-21
-5.955582075e-22
-1.681640485e-21
-6.591071115e-22
-1.550457572e-21
-7.015862036e-22
-1.418724498e-21
-7.246383068e-22
-1.289710357e-21
-7.306495074e-22
-1.165873021e-21
-7.223854754e-22
-1.048923404e-21
-7.026986206e-22
-9.399306427e-22
-6.743168458e-22
-8.394429209e-22
-6.397088562e-22
-7.476066623e-22
-6.010127784e-22
-6.642738631e-22
-5.600122497e-22
-5.890927579e-22
-5.181449644e-22
-5.21580673e-22
-4.765311605e-22
-4.611801261e-22
-4.360125138e-22
-4.07300346e-22
-3.971947296e-22
-3.593467781e-22
-3.60489458e-22
-3.167410984e-22
-3.261529537e-22
-2.789339861e-22
-2.943201763e-22
-2.454125457e-22
-2.650338845e-22
-2.157038912e-22
-2.38268813e-22
-1.893760693e-22
-2.139513222e-22
-1.660372038e-22
-1.919750614e-22
-1.453335104e-22
-1.7221323e-22
-1.269466449e-22
-1.545280067e-22
-1.105907085e-22
-1.387776692e-22
-9.600912778e-23
-1.248218657e-22
-8.297155223e-23
-1.125254266e-22
-7.127085632e-23
-1.017610481e-22
-6.072029543e-23
-9.241111262e-23
-5.115083825e-23
-8.436886513e-23
-4.240868039e-23
-7.753911824e-23
-3.43529315e-23
-7.18386222e-23
-2.685345997e-23
-6.719620724e-23
-1.978887353e-23
-6.355278142e-23
-1.304461125e-23
-6.086124925e-23
-6.51112672e-24
-5.908640347e-23
-5.820482956e-23
-1.553283158e-08
-4.140227457e-09
-1.343978955e-08
-8.420139178e-09
-1.076642129e-08
-1.131947607e-08
-7.696197602e-09
-1.344506857e-08
-4.559860601e-09
-1.455544022e-08
-1.792052644e-09
-1.440857982e-08
-5.804842787e-11
-1.15942344e-08
-7.724940479e-19
-2.939840495e-10
-2.342947628e-21
-1.491686089e-24
-2.305747161e-21
-1.819376177e-22
-2.234253677e-21
-3.528360817e-22
-2.133660777e-21
-5.053800649e-22
-2.010498375e-21
-6.336280601e-22
-1.871753226e-21
-7.343356132e-22
-1.724127759e-21
-8.067711665e-22
-1.573521566e-21
-8.522372496e-22
-1.424749485e-21
-8.734614259e-22
-1.281460546e-21
-8.739955842e-22
-1.146199768e-21
-8.57709394e-22
-1.02055394e-21
-8.284134838e-22
-9.053333167e-22
-7.896122841e-22
-8.007557395e-22
-7.443669019e-22
-7.06613305e-22
-6.952412015e-22
-6.224121663e-22
-6.443047552e-22
-5.474831531e-22
-5.931705732e-22
-4.810650486e-22
-5.430509327e-22
-4.223643962e-22
-4.948197422e-22
-3.705963535e-22
-4.490740864e-22
-3.250109478e-22
-4.0619074e-22
-2.849085349e-22
-3.663756232e-22
-2.496475689e-22
-3.297055923e-22
-2.186471074e-22
-2.96162798e-22
-1.913858703e-22
-2.656623079e-22
-1.673991764e-22
-2.380738798e-22
-1.462746853e-22
-2.132388187e-22
-1.276475803e-22
-1.909827969e-22
-1.111956076e-22
-1.711254275e-22
-9.663423086e-23
-1.534872681e-22
-8.371205383e-23
-1.378948244e-22
-7.220658714e-23
-1.241840182e-22
-6.192038837e-23
-1.122024967e-22
-5.267757319e-23
-1.018110829e-22
-4.432067615e-23
-9.288460152e-23
-3.670782938e-23
-8.531226642e-23
-2.971022181e-23
-7.899777007e-23
-2.320979926e-23
-7.385918499e-23
-1.709716576e-23
-6.982876026e-23
-1.126964868e-23
-6.685267645e-23
-5.629494498e-24
-6.489080676e-23
-6.391651804e-23
-1.900671169e-08
-5.553901002e-09
-1.626666388e-08
-1.116018699e-08
-1.269783841e-08
-1.488830153e-08
-8.559243798e-09
-1.758366316e-08
-4.558427879e-09
-1.855625613e-08
-1.516667054e-09
-1.745034063e-08
-9.940318335e-11
-1.301149825e-08
2.682045124e-17
-3.933872356e-10
-2.523773182e-21
-1.505220013e-24
-2.476606321e-21
-2.291104215e-22
-2.386768038e-21
-4.426869937e-22
-2.261892585e-21
-6.302749051e-22
-2.111202266e-21
-7.843442501e-22
-1.944195259e-21
-9.013748852e-22
-1.76960743e-21
-9.813975941e-22
-1.594763443e-21
-1.0271261e-21
-1.425302933e-21
-1.042972988e-21
-1.265193355e-21
-1.034162315e-21
-1.116921333e-21
-1.006044572e-21
-9.817680068e-22
-9.636358623e-22
-8.601007221e-22
-9.113544018e-22
-7.516403624e-22
-8.529077495e-22
-6.556849053e-22
-7.912826678e-22
-5.712840325e-22
-7.287970164e-22
-4.973678731e-22
-6.671833507e-22
-4.328368377e-22
-6.076836589e-22
-3.766206211e-22
-5.511425588e-22
-3.277140352e-22
-4.980920112e-22
-2.851962154e-22
-4.488244615e-22
-2.482384157e-22
-4.034537056e-22
-2.161043516e-22
-3.61964133e-22
-1.881459681e-22
-3.242496606e-22
-1.63796651e-22
-2.901439101e-22
-1.425632461e-22
-2.594431764e-22
-1.24017764e-22
-2.319235951e-22
-1.077893161e-22
-2.073537352e-22
-9.3556583e-23
-1.855036373e-22
-8.104096885e-23
-1.661511331e-22
-7.000048775e-23
-1.49086116e-22
-6.022437155e-23
-1.341132879e-22
-5.152835022e-23
-1.210537965e-22
-4.375053925e-23
-1.097460774e-22
-3.67478607e-23
-1.000461475e-22
-3.039292439e-23
-9.182753189e-23
-2.457129881e-23
-8.498096332e-23
-1.917910609e-23
-7.941395982e-23
-1.412088181e-23
-7.505035634e-23
-9.307646149e-24
-7.182984832e-23
-4.655139514e-24
-6.970758826e-23
-6.865386417e-23
-2.330937942e-08
-7.348714855e-09
-1.963993023e-08
-1.482963617e-08
-1.463597643e-08
-1.989225533e-08
-8.877768295e-09
-2.334187128e-08
-3.837158055e-09
-2.359686637e-08
-8.564200534e-10
-2.043107864e-08
-2.099380018e-10
-1.365798032e-08
3.110982609e-17
-6.033252076e-10
-2.751990634e-21
-2.823773153e-24
-2.690130464e-21
-2.90976535e-22
-2.57431841e-21
-5.585116808e-22
-2.415944361e-21
-7.886683473e-22
-2.228233031e-21
-9.720814584e-22
-2.024231476e-21
-1.105408714e-21
-1.815357919e-21
-1.190309758e-21
-1.610636368e-21
-1.231892527e-21
-1.416518933e-21
-1.237141486e-21
-1.237100624e-21
-1.21363779e-21
-1.074534656e-21
-1.168673711e-21
-9.295050378e-22
-1.108734549e-21
-8.016689681e-22
-1.039265322e-21
-6.900268437e-22
-9.646303803e-22
-5.932078979e-22
-8.881876421e-22
-5.09676564e-22
-8.124197592e-22
-4.378723964e-22
-7.390841577e-22
-3.762983929e-22
-6.693593755e-22
-3.235715338e-22
-6.039760407e-22
-2.784470545e-22
-5.433278532e-22
-2.398253827e-22
-4.875620591e-22
-2.067483149e-22
-4.366510808e-22
-1.7838905e-22
-3.904478999e-22
-1.540392021e-22
-3.487280132e-22
-1.330948011e-22
-3.112206226e-22
-1.150425108e-22
-2.776313848e-22
-9.944675738e-23
-2.476586697e-22
-8.593811011e-23
-2.210048999e-22
-7.420303095e-23
-1.973842204e-22
-6.397497768e-23
-1.765274645e-22
-5.502676772e-23
-1.581851638e-22
-4.716407425e-23
-1.421291623e-22
-4.021991295e-23
-1.281532635e-22
-3.40499786e-23
-1.160732223e-22
-2.852870007e-23
-1.057263204e-22
-2.354589454e-23
-9.697069325e-23
-1.900391541e-23
-8.968453648e-23
-1.481520182e-23
-8.376528152e-23
-1.090015009e-23
-7.912880554e-23
-7.185237899e-24
-7.570872206e-23
-3.601341573e-24
-7.345578457e-23
-7.23374245e-23
-2.852627498e-08
-9.535466031e-09
-2.385221536e-08
-1.950369579e-08
-1.742971545e-08
-2.631475525e-08
-1.008677222e-08
-3.068481452e-08
-3.813839873e-09
-2.986979873e-08
-6.609171443e-10
-2.358400141e-08
-6.042138018e-10
-1.371468371e-08
-7.643625316e-18
-1.207538991e-09
-3.041442327e-21
-7.42923597e-24
-2.957595128e-21
-3.748296795e-22
-2.804428384e-21
-7.116910605e-22
-2.599340776e-21
-9.937753533e-22
-2.361568522e-21
-1.209879597e-21
-2.109157954e-21
-1.357851563e-21
-1.856975488e-21
-1.442530841e-21
-1.615923114e-21
-1.472989786e-21
-1.393051594e-21
-1.460064082e-21
-1.192168884e-21
-1.414577679e-21
-1.01462265e-21
-1.34628313e-21
-8.600575803e-22
-1.263368702e-21
-7.270507786e-22
-1.17234699e-21
-6.135964922e-22
-1.07816519e-21
-5.174487845e-22
-9.844213966e-22
-4.363468443e-22
-8.936131274e-22
-3.681512614e-22
-8.073764001e-22
-3.109170243e-22
-7.266953466e-22
-2.629240827e-22
-6.520756268e-22
-2.226811244e-22
-5.836821963e-22
-1.889136724e-22
-5.214454599e-22
-1.605440151e-22
-4.651410689e-22
-1.366678134e-22
-4.144486274e-22
-1.165303438e-22
-3.689940119e-22
-9.950405919e-23
-3.283792434e-22
-8.506831161e-23
-2.922030756e-22
-7.279156207e-23
-2.600747658e-22
-6.231608812e-23
-2.316229169e-22
-5.33450309e-23
-2.065008073e-22
-4.563153897e-23
-1.843892605e-22
-3.896973786e-23
-1.649978287e-22
-3.318725643e-23
-1.480648507e-22
-2.813906021e-23
-1.333567913e-22
-2.37023691e-23
-1.206671498e-22
-1.977246535e-23
-1.098151442e-22
-1.625922617e-23
-1.006443136e-22
-1.308424086e-23
-9.302114094e-23
-1.017839471e-23
-8.683376065e-23
-7.479820981e-24
-8.199080133e-23
-4.932137956e-24
-7.842039099e-23
-2.482900644e-24
-7.606934601e-23
-7.490255542e-23
-3.556907234e-08
-1.125214194e-08
-3.218585912e-08
-2.288690901e-08
-2.707070046e-08
-3.142991394e-08
-1.917356518e-08
-3.858194983e-08
-9.883864427e-09
-3.915949953e-08
-3.418824709e-09
-3.004904118e-08
-1.634835556e-09
-1.54986729e-08
-2.022037052e-17
-2.842374626e-09
-3.412705534e-21
-2.181707521e-23
-3.294365708e-21
-4.931754542e-22
-3.086456827e-21
-9.196125795e-22
-2.815434232e-21
-1.264817349e-21
-2.509564552e-21
-1.515775169e-21
-2.193882413e-21
-1.673565991e-21
-1.887488428e-21
-1.74896345e-21
-1.603051365e-21
-1.757471743e-21
-1.34761382e-21
-1.715552713e-21
-1.123915172e-21
-1.638333518e-21
-9.317407067e-22
-1.538520793e-21
-7.690605488e-22
-1.426117958e-21
-6.32886932e-22
-1.308595488e-21
-5.198651619e-22
-1.1912675e-21
-4.266486811e-22
-1.077723941e-21
-3.501150305e-22
-9.702382239e-22
-2.874727338e-22
-8.701153749e-22
-2.362981302e-22
-7.779717035e-22
-1.945303073e-22
-6.939501143e-22
-1.604432707e-22
-6.178806384e-22
-1.326076846e-22
-5.493970161e-22
-1.098497084e-22
-4.880193978e-22
-9.12112134e-23
-4.332116706e-22
-7.591357451e-23
-3.844202026e-22
-6.332594272e-23
-3.410992345e-22
-5.293814954e-23
-3.027268355e-22
-4.433798399e-23
-2.688143016e-22
-3.719238662e-23
-2.389110813e-22
-3.123203547e-23
-2.126067123e-22
-2.623880199e-23
-1.895308223e-22
-2.203559505e-23
-1.693519237e-22
-1.847816706e-23
-1.517755098e-22
-1.544851704e-23
-1.365417972e-22
-1.284958302e-23
-1.234233444e-22
-1.060096887e-23
-1.122227023e-22
-8.635495482e-24
-1.027701921e-22
-6.896404812e-24
-9.492187444e-23
-5.33507689e-24
-8.855774502e-23
-3.909145367e-24
-8.358017818e-23
-2.580917842e-24
-7.991262748e-23
-1.316022975e-24
-7.749858789e-23
-7.630081941e-23
-4.750620752e-08
-9.284461989e-09
-5.152847782e-08
-1.886463871e-08
-5.276939286e-08
-3.018899892e-08
-4.540737518e-08
-4.594396755e-08
-2.934172792e-08
-5.522514683e-08
-1.231601432e-08
-4.707475487e-08
-3.194267625e-09
-2.462041961e-08
-1.863472484e-18
-6.036642319e-09
-3.89470469e-21
-8.427181729e-23
-3.720684191e-21
-6.672019034e-22
-3.431596774e-21
-1.208712637e-21
-3.06639733e-21
-1.630036198e-21
-2.667408973e-21
-1.914789423e-21
-2.269357095e-21
-2.071650164e-21
-1.896078762e-21
-2.122280416e-21
-1.561207752e-21
-2.092387655e-21
-1.270457992e-21
-2.00635357e-21
-1.024152344e-21
-1.884696367e-21
-8.193751416e-22
-1.743361206e-21
-6.515645958e-22
-1.593997614e-21
-5.155768609e-22
-1.444658118e-21
-4.06332952e-22
-1.300591963e-21
-3.191694807e-22
-1.164973492e-21
-2.499952615e-22
-1.039503905e-21
-1.953297797e-22
-9.24877552e-22
-1.522756966e-22
-8.211275579e-22
-1.18459007e-22
-7.27873487e-22
-9.195725673e-23
-6.444938134e-22
-7.122739355e-23
-5.70242869e-22
-5.503922058e-23
-5.043279437e-22
-4.241702378e-23
-4.459584363e-22
-3.259000351e-23
-3.943757958e-22
-2.495110631e-23
-3.488705125e-22
-1.902336856e-23
-3.087905616e-22
-1.443271641e-23
-2.73544346e-22
-1.088617036e-23
-2.426002165e-22
-8.154492067e-24
-2.154839668e-22
-6.058434382e-24
-1.917752308e-22
-4.457885418e-24
-1.711033833e-22
-3.243319935e-24
-1.53143329e-22
-2.329079416e-24
-1.376114161e-22
-1.648094565e-24
-1.242616123e-22
-1.147740707e-24
-1.128820225e-22
-7.86579202e-25
-1.032917809e-22
-5.317884396e-25
-9.533833005e-23
-3.571282275e-25
-8.889508354e-23
-2.413128191e-25
-8.385946059e-23
-1.666925011e-25
-8.015127827e-23
-1.181622364e-25
-7.771148652e-23
-7.650123251e-23
-6.50624529e-08
3.009384476e-11
-8.097037931e-08
-2.956712306e-09
-9.150116726e-08
-1.965821097e-08
-8.721928393e-08
-5.022585086e-08
-6.528765078e-08
-7.715677997e-08
-3.260885732e-08
-7.97535484e-08
-7.094078606e-09
-5.013519834e-08
3.253284144e-17
-1.313072094e-08
-4.5015615e-21
-1.286928655e-22
-4.26191003e-21
-9.068593239e-22
-3.852838321e-21
-1.617796989e-21
-3.351193516e-21
-2.13170041e-21
-2.824377506e-21
-2.441631333e-21
-2.320115412e-21
-2.57594456e-21
-1.866307533e-21
-2.576126935e-21
-1.475275982e-21
-2.483464116e-21
-1.148880324e-21
-2.332800332e-21
-8.828753052e-22
-2.150758598e-21
-6.700517353e-22
-1.956247996e-21
-5.022513013e-22
-1.76186717e-21
-3.715265555e-22
-1.575457771e-21
-2.707229789e-22
-1.401476107e-21
-1.937033672e-22
-1.242079197e-21
-1.353690804e-22
-1.097929669e-21
-9.157789303e-23
-9.687654504e-22
-5.901852906e-23
-8.537887094e-22
-3.507561649e-23
-7.519230996e-22
-1.770236004e-23
-6.619785119e-22
-5.308525809e-24
-5.82752711e-22
3.334069742e-24
-5.130909305e-22
9.16915525e-24
-4.519181094e-22
1.291853177e-23
-3.982537643e-22
1.513179527e-23
-3.512161762e-22
1.622549875e-23
-3.100202732e-22
1.65137784e-23
-2.739720379e-22
1.623217608e-23
-2.424612235e-22
1.555609264e-23
-2.149534799e-22
1.461503471e-23
-1.90982544e-22
1.350358366e-23
-1.701428633e-22
1.228982027e-23
-1.520828399e-22
1.10217813e-23
-1.36498776e-22
9.732397355e-24
-1.231295318e-22
8.443261876e-24
-1.117518738e-22
7.167503092e-24
-1.021764697e-22
5.911969758e-24
-9.424448171e-23
4.678894684e-24
-8.782470676e-23
3.46716405e-24
-8.28112168e-23
2.273293045e-24
-7.912145742e-23
1.092187934e-24
-7.669476933e-23
-7.549130425e-23
-7.740191918e-08
1.47713937e-08
-1.00548939e-07
2.019030746e-08
-1.185620255e-07
-1.645124517e-09
-1.23091314e-07
-4.569656241e-08
-1.070088427e-07
-9.323925124e-08
-6.742665289e-08
-1.193357382e-07
-2.011070531e-08
-9.745114599e-08
6.731540238e-17
-3.324142621e-08
-5.336862917e-21
-1.759300269e-22
-4.972499103e-21
-1.271229089e-21
-4.366706211e-21
-2.223602526e-21
-3.661265204e-21
-2.837160829e-21
-2.958897262e-21
-3.144025178e-21
-2.320503519e-21
-3.21437061e-21
-1.773818447e-21
-3.122850653e-21
-1.324744995e-21
-2.932582487e-21
-9.669329391e-22
-2.690663501e-21
-6.884275839e-22
-2.429321173e-21
-4.757100595e-22
-2.16902875e-21
-3.158641596e-22
-1.921782203e-21
-1.975556727e-22
-1.693841177e-21
-1.113293896e-22
-1.48778297e-21
-4.955254363e-23
-1.303942149e-21
-6.200889457e-24
-1.141372814e-21
2.340421168e-23
-9.984672764e-22
4.285301365e-23
-8.733393134e-22
5.487496582e-23
-7.640517668e-22
6.152919955e-23
-6.687442033e-22
6.435861627e-23
-5.856981513e-22
6.451178103e-23
-5.133645028e-22
6.283789806e-23
-4.503688307e-22
5.996003574e-23
-3.955045111e-22
5.633115995e-23
-3.477197179e-22
5.227677791e-23
-3.061019169e-22
4.802725818e-23
-2.698619483e-22
4.37422455e-23
-2.383188382e-22
3.952905142e-23
-2.108859004e-22
3.545646927e-23
-1.870583513e-22
3.156512196e-23
-1.664024654e-22
2.78751868e-23
-1.485461973e-22
2.439213898e-23
-1.331711453e-22
2.111099979e-23
-1.200057144e-22
1.801945828e-23
-1.088193372e-22
1.510014553e-23
-9.941762262e-23
1.23322731e-23
-9.163831228e-23
9.692796439e-24
-8.534794629e-23
7.157226003e-24
-8.043915096e-23
4.700179908e-24
-7.682847912e-23
2.295751542e-24
-7.445474638e-23
-7.327782004e-23
-6.237028448e-08
2.645032554e-08
-8.234630971e-08
4.016633272e-08
-1.021229401e-07
1.813150582e-08
-1.185407927e-07
-2.927870992e-08
-1.232461942e-07
-8.853384967e-08
-9.909280099e-08
-1.434891314e-07
-4.229567687e-08
-1.542482702e-07
9.024627833e-17
-7.553710298e-08
-6.578923291e-21
-4.954185587e-22
-5.924889125e-21
-1.925269207e-21
-4.980424133e-21
-3.168080166e-21
-3.968478595e-21
-3.849125783e-21
-3.029614565e-21
-4.082915115e-21
-2.229298225e-21
-4.01471926e-21
-1.58378521e-21
-3.768402319e-21
-1.082986832e-21
-3.433425788e-21
-7.056928153e-22
-3.068008637e-21
-4.2819507e-22
-2.706876146e-21
-2.284947911e-22
-2.368792267e-21
-8.793602948e-23
-2.062410106e-21
8.500838123e-24
-1.790352973e-21
7.251613124e-23
-1.551878853e-21
1.13024799e-22
-1.344536934e-21
1.367140494e-22
-1.165153566e-21
1.485418329e-22
-1.010391797e-21
1.521498375e-22
-8.770491325e-22
1.501910997e-22
-7.621997572e-22
1.445829777e-22
-6.632475523e-22
1.366991201e-22
-5.779303312e-22
1.275134717e-22
-5.042992763e-22
1.177074643e-22
-4.406874421e-22
1.077493808e-22
-3.856750515e-22
9.795289747e-23
-3.380556672e-22
8.852014337e-23
-2.968052038e-22
7.95732948e-23
-2.610545452e-22
7.117770123e-23
-2.300658876e-22
6.335876407e-23
-2.032125937e-22
5.611421107e-23
-1.799622036e-22
4.94229783e-23
-1.598621979e-22
4.325159356e-23
-1.42528121e-22
3.755872009e-23
-1.27633705e-22
3.229834659e-23
-1.149026785e-22
2.742198227e-23
-1.041019937e-22
2.28801216e-23
-9.503624336e-23
1.862317469e-23
-8.754308403e-23
1.460200802e-23
-8.148951135e-23
1.076820305e-23
-7.676886601e-23
7.074112838e-24
-7.329847199e-23
3.472777023e-24
-7.101783115e-23
-6.988731671e-23
-1.878430914e-08
2.755830568e-08
-2.590856895e-08
4.72905926e-08
-3.834538294e-08
3.056831986e-08
-5.886965267e-08
-8.754440218e-09
-8.628889183e-08
-6.111461048e-08
-9.978625384e-08
-1.299917693e-07
-6.303802091e-08
-1.909965032e-07
5.042217728e-17
-1.385751237e-07
-8.344821765e-21
-1.049901799e-21
-7.168079037e-21
-3.102017888e-21
-5.662038983e-21
-4.67413287e-21
-4.202991006e-21
-5.308193179e-21
-2.962036098e-21
-5.323895935e-21
-1.983427554e-21
-4.993360119e-21
-1.249099263e-21
-4.502769265e-21
-7.177430873e-22
-3.964826893e-21
-3.446540775e-22
-3.441148772e-21
-9.015446618e-23
-2.961432991e-21
7.787420981e-23
-2.536884188e-21
1.841247566e-22
-2.168729801e-21
2.469871536e-22
-1.853290306e-21
2.79873863e-22
-1.58484616e-21
2.924248011e-22
-1.357173998e-21
2.914917879e-22
-1.164312065e-21
2.818990884e-22
-1.000895844e-21
2.670121611e-22
-8.622640304e-22
2.491545882e-22
-7.444489233e-22
2.299099197e-22
-6.441143662e-22
2.103384901e-22
-5.584749507e-22
1.911323882e-22
-4.852136082e-22
1.727258731e-22
-4.224055581e-22
1.553738736e-22
-3.684516883e-22
1.392076964e-22
-3.220219353e-22
1.242744824e-22
-2.820080436e-22
1.105650784e-22
-2.474845997e-22
9.803365125e-23
-2.176771165e-22
8.661141152e-23
-1.919359975e-22
7.621613456e-23
-1.697153451e-22
6.675868269e-23
-1.505557246e-22
5.814738779e-23
-1.340701479e-22
5.029090908e-23
-1.199326726e-22
4.310000616e-23
-1.078691264e-22
3.648854239e-23
-9.764956385e-23
3.037394439e-23
-8.908213992e-23
2.467727942e-23
-8.200815076e-23
1.932306577e-23
-7.629804237e-23
1.423889885e-23
-7.184823196e-23
9.354951347e-24
-6.85786203e-23
4.603389266e-24
-6.643070226e-23
-6.536620611e-23
2.349975684e-08
1.895610228e-08
3.155662208e-08
3.923372738e-08
3.026350442e-08
3.186143763e-08
1.817572795e-08
3.333336309e-09
-1.108399395e-08
-3.185488853e-08
-5.982696154e-08
-8.124880161e-08
-7.042098575e-08
-1.804024791e-07
-3.991896874e-17
-2.089961091e-07
-1.103619641e-20
-2.325696617e-21
-8.741617834e-21
-5.396602414e-21
-6.297689698e-21
-7.118073656e-21
-4.220049768e-21
-7.385852528e-21
-2.632429175e-21
-6.911542443e-21
-1.49339943e-21
-6.132422181e-21
-7.114647452e-22
-5.284742609e-21
-1.942134707e-22
-4.4821231e-21
1.350055742e-22
-3.770418946e-21
3.343880683e-22
-3.160872724e-21
4.460468654e-22
-2.648606235e-21
4.99592734e-22
-2.222344824e-21
5.154623167e-22
-1.869234831e-21
5.075757505e-22
-1.577040199e-21
4.853134872e-22
-1.334997868e-21
4.549312576e-22
-1.134021354e-21
4.205506933e-22
-9.666120347e-22
3.8484391e-22
-8.266590806e-22
3.495030402e-22
-7.092148011e-22
3.15560894e-22
-6.102837114e-22
2.836094347e-22
-5.266395497e-22
2.539484157e-22