/*--------------------------------*- C++ -*----------------------------------*\
  =========                 |
  \\      /  F ield         | OpenFOAM: The Open Source CFD Toolbox
   \\    /   O peration     | Website:  https://openfoam.org
    \\  /    A nd           | Version:  6
     \\/     M anipulation  |
\*---------------------------------------------------------------------------*/
FoamFile
{
    version     2.0;
    format      ascii;
    class       volScalarField;
    location    "0.03";
    object      pVap;
}
// * * * * * * * * * * * * * * * * * * * * * * * * * * * * * * * * * * * * * //

dimensions      [1 -1 -2 0 0 0 0];

internalField   nonuniform List<scalar> 
2500
(
55292.59287
55292.59285
55292.59278
55292.59264
55292.59242
55292.5921
55292.59171
55292.59127
1.074253301
1.074252645
1.074252518
1.074252494
1.07425249
1.074252489
1.074252489
1.074252489
1.074252489
1.074252489
1.074252489
1.074252489
1.074252489
1.074252489
1.074252489
1.074252489
1.074252489
1.074252489
1.074252489
1.074252489
1.074252489
1.074252489
1.074252489
1.074252489
1.074252489
1.074252489
1.074252489
1.074252489
1.074252489
1.074252489
1.074252489
1.074252489
1.074252489
1.074252489
1.074252489
1.074252489
1.074252489
1.074252489
1.074252489
1.074252489
1.074252489
1.074252489
55292.59668
55292.59661
55292.59639
55292.59594
55292.5952
55292.59414
55292.5928
55292.5913
1.074255314
1.074253047
1.074252598
1.074252511
1.074252494
1.07425249
1.074252489
1.074252489
1.074252489
1.074252489
1.074252489
1.074252489
1.074252489
1.074252489
1.074252489
1.074252489
1.074252489
1.074252489
1.074252489
1.074252489
1.074252489
1.074252489
1.074252489
1.074252489
1.074252489
1.074252489
1.074252489
1.074252489
1.074252489
1.074252489
1.074252489
1.074252489
1.074252489
1.074252489
1.074252489
1.074252489
1.074252489
1.074252489
1.074252489
1.074252489
1.074252489
1.074252489
55292.60236
55292.60226
55292.60188
55292.60103
55292.59953
55292.59734
55292.59452
55292.5926
1.074258693
1.074253775
1.074252763
1.074252552
1.074252504
1.074252493
1.07425249
1.074252489
1.074252489
1.074252489
1.074252489
1.074252489
1.074252489
1.074252489
1.074252489
1.074252489
1.074252489
1.074252489
1.074252489
1.074252489
1.074252489
1.074252489
1.074252489
1.074252489
1.074252489
1.074252489
1.074252489
1.074252489
1.074252489
1.074252489
1.074252489
1.074252489
1.074252489
1.074252489
1.074252489
1.074252489
1.074252489
1.074252489
1.074252489
1.074252489
1.074252489
1.074252489
55292.61175
55292.61167
55292.61114
55292.6097
55292.60701
55292.6029
55292.59754
55292.59461
1.074265142
1.07425534
1.074253184
1.074252676
1.074252542
1.074252504
1.074252493
1.07425249
1.074252489
1.074252489
1.074252489
1.074252489
1.074252489
1.074252489
1.074252489
1.074252489
1.074252489
1.074252489
1.074252489
1.074252489
1.074252489
1.074252489
1.074252489
1.074252489
1.074252489
1.074252489
1.074252489
1.074252489
1.074252489
1.074252489
1.074252489
1.074252489
1.074252489
1.074252489
1.074252489
1.074252489
1.074252489
1.074252489
1.074252489
1.074252489
1.074252489
1.074252489
55292.62758
55292.62769
55292.62709
55292.62486
55292.62022
55292.61282
55292.60293
55292.59768
1.074278279
1.074259092
1.074254408
1.074253097
1.074252681
1.074252546
1.074252504
1.074252493
1.07425249
1.074252489
1.074252489
1.074252489
1.074252489
1.074252489
1.074252489
1.074252489
1.074252489
1.074252489
1.074252489
1.074252489
1.074252489
1.074252489
1.074252489
1.074252489
1.074252489
1.074252489
1.074252489
1.074252489
1.074252489
1.074252489
1.074252489
1.074252489
1.074252489
1.074252489
1.074252489
1.074252489
1.074252489
1.074252489
1.074252489
1.074252489
1.074252489
1.074252489
55292.65405
55292.65474
55292.65438
55292.65115
55292.64342
55292.63039
55292.61254
55292.60282
1.074306897
1.074269088
1.074258274
1.074254561
1.074253187
1.074252702
1.074252547
1.074252503
1.074252492
1.074252489
1.074252489
1.074252489
1.074252489
1.074252489
1.074252489
1.074252489
1.074252489
1.074252489
1.074252489
1.074252489
1.074252489
1.074252489
1.074252489
1.074252489
1.074252489
1.074252489
1.074252489
1.074252489
1.074252489
1.074252489
1.074252489
1.074252489
1.074252489
1.074252489
1.074252489
1.074252489
1.074252489
1.074252489
1.074252489
1.074252489
1.074252489
1.074252489
55292.6974
55292.6995
55292.70022
55292.69597
55292.6835
55292.66103
55292.62937
55292.60926
1.074374801
1.07429813
1.074270965
1.074259638
1.07425498
1.074253259
1.074252701
1.074252541
1.074252501
1.074252491
1.074252489
1.074252489
1.074252489
1.074252489
1.074252489
1.074252489
1.074252489
1.074252489
1.074252489
1.074252489
1.074252489
1.074252489
1.074252489
1.074252489
1.074252489
1.074252489
1.074252489
1.074252489
1.074252489
1.074252489
1.074252489
1.074252489
1.074252489
1.074252489
1.074252489
1.074252489
1.074252489
1.074252489
1.074252489
1.074252489
1.074252489
1.074252489
55292.7664
55292.77159
55292.77523
55292.77057
55292.75118
55292.71329
55292.65824
55292.61649
1.074551106
1.074386834
1.074312612
1.074276724
1.074261052
1.074255145
1.074253219
1.074252669
1.074252529
1.074252497
1.07425249
1.074252489
1.074252489
1.074252489
1.074252489
1.074252489
1.074252489
1.074252489
1.074252489
1.074252489
1.074252489
1.074252489
1.074252489
1.074252489
1.074252489
1.074252489
1.074252489
1.074252489
1.074252489
1.074252489
1.074252489
1.074252489
1.074252489
1.074252489
1.074252489
1.074252489
1.074252489
1.074252489
1.074252489
1.074252489
1.074252489
1.074252489
55292.87232
55292.88366
55292.89393
55292.89089
55292.86217
55292.80002
55292.70659
55292.61982
1.075041446
1.074660682
1.074445635
1.074331713
1.074280571
1.074261184
1.074254871
1.074253073
1.074252619
1.074252515
1.074252494
1.07425249
1.074252489
1.074252489
1.074252489
1.074252489
1.074252489
1.074252489
1.074252489
1.074252489
1.074252489
1.074252489
1.074252489
1.074252489
1.074252489
1.074252489
1.074252489
1.074252489
1.074252489
1.074252489
1.074252489
1.074252489
1.074252489
1.074252489
1.074252489
1.074252489
1.074252489
1.074252489
1.074252489
1.074252489
1.074252489
1.074252489
55293.02773
55293.05029
55293.0738
55293.07712
55293.03747
55292.93939
55292.78565
55292.6146
1.076450352
1.075489973
1.074852511
1.074499465
1.074339771
1.074279386
1.074259822
1.074254279
1.074252885
1.074252569
1.074252504
1.074252491
1.074252489
1.074252489
1.074252489
1.074252489
1.074252489
1.074252489
1.074252489
1.074252489
1.074252489
1.074252489
1.074252489
1.074252489
1.074252489
1.074252489
1.074252489
1.074252489
1.074252489
1.074252489
1.074252489
1.074252489
1.074252489
1.074252489
1.074252489
1.074252489
1.074252489
1.074252489
1.074252489
1.074252489
1.074252489
1.074252489
55293.24312
55293.284
55293.33076
55293.3495
55293.30124
55293.15568
55292.91281
55292.61345
1.080492611
1.077906554
1.076032629
1.074981827
1.074508558
1.074330898
1.074273743
1.074257653
1.074253625
1.074252717
1.074252531
1.074252496
1.07425249
1.074252489
1.074252489
1.074252489
1.074252489
1.074252489
1.074252489
1.074252489
1.074252489
1.074252489
1.074252489
1.074252489
1.074252489
1.074252489
1.074252489
1.074252489
1.074252489
1.074252489
1.074252489
1.074252489
1.074252489
1.074252489
1.074252489
1.074252489
1.074252489
1.074252489
1.074252489
1.074252489
1.074252489
1.074252489
55293.5211
55293.58827
55293.67128
55293.72088
55293.67648
55293.48097
55293.11716
55292.6356
1.091802276
1.084608386
1.079259207
1.076284017
1.074959557
1.074467406
1.074310386
1.074266482
1.074255554
1.074253103
1.074252602
1.074252508
1.074252492
1.074252489
1.074252489
1.074252489
1.074252489
1.074252489
1.074252489
1.074252489
1.074252489
1.074252489
1.074252489
1.074252489
1.074252489
1.074252489
1.074252489
1.074252489
1.074252489
1.074252489
1.074252489
1.074252489
1.074252489
1.074252489
1.074252489
1.074252489
1.074252489
1.074252489
1.074252489
1.074252489
1.074252489
1.074252489
55293.8514
55293.95284
55294.08817
55294.19138
55294.1783
55293.95375
55293.44807
55292.75543
1.122301792
1.102210699
1.08754811
1.079575054
1.076085922
1.074805309
1.074400457
1.074288062
1.074260246
1.074254036
1.074252773
1.074252537
1.074252497
1.07425249
1.074252489
1.074252489
1.074252489
1.074252489
1.074252489
1.074252489
1.074252489
1.074252489
1.074252489
1.074252489
1.074252489
1.074252489
1.074252489
1.074252489
1.074252489
1.074252489
1.074252489
1.074252489
1.074252489
1.074252489
1.074252489
1.074252489
1.074252489
1.074252489
1.074252489
1.074252489
1.074252489
1.074252489
55294.21168
55294.35622
55294.56
55294.7404
55294.79421
55294.59199
55293.97013
55293.7124
1.201746002
1.146069223
1.107545253
1.087347347
1.078709138
1.075584703
1.074606728
1.074337201
1.074270881
1.074256144
1.074253158
1.074252603
1.074252507
1.074252491
1.074252489
1.074252489
1.074252489
1.074252489
1.074252489
1.074252489
1.074252489
1.074252489
1.074252489
1.074252489
1.074252489
1.074252489
1.074252489
1.074252489
1.074252489
1.074252489
1.074252489
1.074252489
1.074252489
1.074252489
1.074252489
1.074252489
1.074252489
1.074252489
1.074252489
1.074252489
1.074252489
1.074252489
55294.5679
55294.76225
55295.03559
55295.30765
55295.46381
55295.35471
55294.71939
55294.61429
1.405951626
1.250882418
1.15300536
1.10449172
1.084394775
1.077255776
1.075045706
1.074441189
1.074293284
1.074260567
1.074253964
1.074252739
1.074252528
1.074252495
1.07425249
1.074252489
1.074252489
1.074252489
1.074252489
1.074252489
1.074252489
1.074252489
1.074252489
1.074252489
1.074252489
1.074252489
1.074252489
1.074252489
1.074252489
1.074252489
1.074252489
1.074252489
1.074252489
1.074252489
1.074252489
1.074252489
1.074252489
1.074252489
1.074252489
1.074252489
1.074252489
1.074252489
55294.82029
55295.05159
55295.41228
55295.78879
55296.09441
55296.16954
55295.67922
55294.13429
1.949375571
1.497048845
1.251278526
1.13986751
1.095846183
1.080578013
1.075911532
1.074645145
1.074337032
1.074269173
1.074255527
1.074253002
1.07425257
1.074252501
1.07425249
1.074252489
1.074252489
1.074252489
1.074252489
1.074252489
1.074252489
1.074252489
1.074252489
1.074252489
1.074252489
1.074252489
1.074252489
1.074252489
1.074252489
1.074252489
1.074252489
1.074252489
1.074252489
1.074252489
1.074252489
1.074252489
1.074252489
1.074252489
1.074252489
1.074252489
1.074252489
1.074252489
55294.94073
55295.16194
55295.55804
55296.05705
55296.57429
55296.95333
55296.80553
55295.01654
3.559183682
2.087907556
1.456548495
1.208419124
1.117258206
1.086686655
1.077489511
1.075014765
1.074415981
1.074284651
1.07425833
1.074253474
1.074252644
1.074252512
1.074252492
1.074252489
1.074252489
1.074252489
1.074252489
1.074252489
1.074252489
1.074252489
1.074252489
1.074252489
1.074252489
1.074252489
1.074252489
1.074252489
1.074252489
1.074252489
1.074252489
1.074252489
1.074252489
1.074252489
1.074252489
1.074252489
1.074252489
1.074252489
1.074252489
1.074252489
1.074252489
1.074252489
55295.003
55295.18326
55295.53994
55296.07179
55296.79836
55297.6068
55298.03199
55296.79051
9.218997389
3.603499988
1.879634652
1.333921254
1.154403762
1.09704511
1.080137695
1.07563149
1.074547184
1.074310293
1.07426296
1.074254251
1.074252766
1.07425253
1.074252494
1.07425249
1.074252489
1.074252489
1.074252489
1.074252489
1.074252489
1.074252489
1.074252489
1.074252489
1.074252489
1.074252489
1.074252489
1.074252489
1.074252489
1.074252489
1.074252489
1.074252489
1.074252489
1.074252489
1.074252489
1.074252489
1.074252489
1.074252489
1.074252489
1.074252489
1.074252489
1.074252489
55295.06774
55295.21723
55295.54128
55296.08156
55296.91238
55298.04363
55299.26651
55299.12105
32.45141045
7.853242242
2.7557344
1.552238255
1.214125126
1.113185935
1.084212562
1.076574733
1.074747091
1.074349249
1.074269979
1.074255426
1.074252949
1.074252557
1.074252498
1.07425249
1.074252489
1.074252489
1.074252489
1.074252489
1.074252489
1.074252489
1.074252489
1.074252489
1.074252489
1.074252489
1.074252489
1.074252489
1.074252489
1.074252489
1.074252489
1.074252489
1.074252489
1.074252489
1.074252489
1.074252489
1.074252489
1.074252489
1.074252489
1.074252489
1.074252489
1.074252489
55295.1548
55295.29335
55295.61838
55296.20402
55297.16557
55298.59238
55300.40509
55301.62627
129.1563075
20.43395531
4.579011635
1.913309498
1.302815797
1.136178573
1.089928819
1.07788941
1.075024718
1.074403211
1.074279681
1.074257048
1.074253203
1.074252594
1.074252503
1.074252491
1.074252489
1.074252489
1.074252489
1.074252489
1.074252489
1.074252489
1.074252489
1.074252489
1.074252489
1.074252489
1.074252489
1.074252489
1.074252489
1.074252489
1.074252489
1.074252489
1.074252489
1.074252489
1.074252489
1.074252489
1.074252489
1.074252489
1.074252489
1.074252489
1.074252489
1.074252489
55295.26829
55295.41399
55295.77384
55296.45132
55297.58961
55299.29985
55301.51389
55303.90092
463.8520902
56.0273407
8.275303034
2.474784775
1.423454977
1.165871508
1.097178145
1.079545315
1.075373227
1.074470798
1.07429181
1.074259072
1.074253518
1.07425264
1.07425251
1.074252492
1.074252489
1.074252489
1.074252489
1.074252489
1.074252489
1.074252489
1.074252489
1.074252489
1.074252489
1.074252489
1.074252489
1.074252489
1.074252489
1.074252489
1.074252489
1.074252489
1.074252489
1.074252489
1.074252489
1.074252489
1.074252489
1.074252489
1.074252489
1.074252489
1.074252489
1.074252489
55295.39689
55295.55962
55295.97259
55296.76682
55298.11015
55300.12642
55302.7269
55305.69268
1296.409818
140.8380236
15.11658059
3.272237491
1.571139344
1.200136137
1.105377233
1.081405103
1.075763436
1.074546328
1.074305345
1.074261328
1.07425387
1.074252691
1.074252517
1.074252492
1.074252489
1.074252489
1.074252489
1.074252489
1.074252489
1.074252489
1.074252489
1.074252489
1.074252489
1.074252489
1.074252489
1.074252489
1.074252489
1.074252489
1.074252489
1.074252489
1.074252489
1.074252489
1.074252489
1.074252489
1.074252489
1.074252489
1.074252489
1.074252489
1.074252489
1.074252489
55295.52072
55295.70243
55296.16907
55297.07313
55298.5972
55300.85975
55303.71743
55306.96906
2704.961579
293.6436665
25.70560775
4.254807133
1.728553229
1.23453652
1.113444476
1.083222813
1.076143785
1.074619834
1.074318502
1.074263519
1.074254211
1.074252741
1.074252524
1.074252493
1.074252489
1.074252489
1.074252489
1.074252489
1.074252489
1.074252489
1.074252489
1.074252489
1.074252489
1.074252489
1.074252489
1.074252489
1.074252489
1.074252489
1.074252489
1.074252489
1.074252489
1.074252489
1.074252489
1.074252489
1.074252489
1.074252489
1.074252489
1.074252489
1.074252489
1.074252489
55295.61835
55295.81575
55296.32532
55297.31494
55298.97778
55301.42476
55304.47102
55307.77481
4293.397788
483.815937
37.99012322
5.218327964
1.86533255
1.262911892
1.119983054
1.084687808
1.076449672
1.07467888
1.074329062
1.074265277
1.074254484
1.074252781
1.074252529
1.074252494
1.074252489
1.074252489
1.074252489
1.074252489
1.074252489
1.074252489
1.074252489
1.074252489
1.074252489
1.074252489
1.074252489
1.074252489
1.074252489
1.074252489
1.074252489
1.074252489
1.074252489
1.074252489
1.074252489
1.074252489
1.074252489
1.074252489
1.074252489
1.074252489
1.074252489
1.074252489
55295.67218
55295.8785
55296.41223
55297.44999
55299.19181
55301.74263
55304.91348
55308.16593
5354.638198
621.3187322
46.66792337
5.834039179
1.946033467
1.279068879
1.123661569
1.085508864
1.076620866
1.074711903
1.074334965
1.074266259
1.074254637
1.074252803
1.074252532
1.074252494
1.074252489
1.074252489
1.074252489
1.074252489
1.074252489
1.074252489
1.074252489
1.074252489
1.074252489
1.074252489
1.074252489
1.074252489
1.074252489
1.074252489
1.074252489
1.074252489
1.074252489
1.074252489
1.074252489
1.074252489
1.074252489
1.074252489
1.074252489
1.074252489
1.074252489
1.074252489
55295.67218
55295.8785
55296.41223
55297.44999
55299.19181
55301.74263
55304.91348
55308.16697
5354.638201
621.3187143
46.66792232
5.834039112
1.946033459
1.279068878
1.123661569
1.085508864
1.076620866
1.074711903
1.074334965
1.074266259
1.074254637
1.074252803
1.074252532
1.074252494
1.074252489
1.074252489
1.074252489
1.074252489
1.074252489
1.074252489
1.074252489
1.074252489
1.074252489
1.074252489
1.074252489
1.074252489
1.074252489
1.074252489
1.074252489
1.074252489
1.074252489
1.074252489
1.074252489
1.074252489
1.074252489
1.074252489
1.074252489
1.074252489
1.074252489
1.074252489
55295.61835
55295.81575
55296.32531
55297.31493
55298.97778
55301.42476
55304.47102
55307.77729
4293.3979
483.815898
37.99012099
5.218327815
1.865332531
1.262911889
1.119983054
1.084687807
1.076449672
1.07467888
1.074329062
1.074265277
1.074254484
1.074252781
1.074252529
1.074252494
1.074252489
1.074252489
1.074252489
1.074252489
1.074252489
1.074252489
1.074252489
1.074252489
1.074252489
1.074252489
1.074252489
1.074252489
1.074252489
1.074252489
1.074252489
1.074252489
1.074252489
1.074252489
1.074252489
1.074252489
1.074252489
1.074252489
1.074252489
1.074252489
1.074252489
1.074252489
55295.52072
55295.70243
55296.16907
55297.07312
55298.5972
55300.85975
55303.71743
55306.9724
2704.96175
293.643639
25.70560617
4.254807014
1.728553213
1.234536517
1.113444476
1.083222813
1.076143785
1.074619834
1.074318502
1.074263519
1.074254211
1.074252741
1.074252524
1.074252493
1.074252489
1.074252489
1.074252489
1.074252489
1.074252489
1.074252489
1.074252489
1.074252489
1.074252489
1.074252489
1.074252489
1.074252489
1.074252489
1.074252489
1.074252489
1.074252489
1.074252489
1.074252489
1.074252489
1.074252489
1.074252489
1.074252489
1.074252489
1.074252489
1.074252489
1.074252489
55295.39689
55295.55962
55295.97259
55296.76682
55298.11015
55300.12642
55302.7269
55305.6964
1296.409906
140.8380198
15.11658035
3.272237468
1.571139339
1.200136136
1.105377233
1.081405103
1.075763436
1.074546328
1.074305345
1.074261328
1.07425387
1.074252691
1.074252517
1.074252492
1.074252489
1.074252489
1.074252489
1.074252489
1.074252489
1.074252489
1.074252489
1.074252489
1.074252489
1.074252489
1.074252489
1.074252489
1.074252489
1.074252489
1.074252489
1.074252489
1.074252489
1.074252489
1.074252489
1.074252489
1.074252489
1.074252489
1.074252489
1.074252489
1.074252489
1.074252489
55295.26829
55295.41398
55295.77384
55296.45132
55297.58961
55299.29985
55301.51389
55303.9058
463.8520962
56.0273467
8.275303488
2.474784825
1.423454985
1.16587151
1.097178145
1.079545315
1.075373227
1.074470798
1.07429181
1.074259072
1.074253518
1.07425264
1.07425251
1.074252492
1.074252489
1.074252489
1.074252489
1.074252489
1.074252489
1.074252489
1.074252489
1.074252489
1.074252489
1.074252489
1.074252489
1.074252489
1.074252489
1.074252489
1.074252489
1.074252489
1.074252489
1.074252489
1.074252489
1.074252489
1.074252489
1.074252489
1.074252489
1.074252489
1.074252489
1.074252489
55295.1548
55295.29334
55295.61838
55296.20402
55297.16557
55298.59237
55300.40509
55301.63332
129.1562939
20.4339596
4.579012074
1.913309562
1.302815809
1.136178576
1.089928819
1.07788941
1.075024718
1.074403211
1.074279681
1.074257048
1.074253203
1.074252594
1.074252503
1.074252491
1.074252489
1.074252489
1.074252489
1.074252489
1.074252489
1.074252489
1.074252489
1.074252489
1.074252489
1.074252489
1.074252489
1.074252489
1.074252489
1.074252489
1.074252489
1.074252489
1.074252489
1.074252489
1.074252489
1.074252489
1.074252489
1.074252489
1.074252489
1.074252489
1.074252489
1.074252489
55295.06774
55295.21722
55295.54127
55296.08156
55296.91237
55298.04363
55299.2665
55299.12635
32.45141351
7.853243617
2.755734615
1.552238298
1.214125136
1.113185937
1.084212563
1.076574733
1.074747091
1.074349249
1.074269979
1.074255426
1.074252949
1.074252557
1.074252498
1.07425249
1.074252489
1.074252489
1.074252489
1.074252489
1.074252489
1.074252489
1.074252489
1.074252489
1.074252489
1.074252489
1.074252489
1.074252489
1.074252489
1.074252489
1.074252489
1.074252489
1.074252489
1.074252489
1.074252489
1.074252489
1.074252489
1.074252489
1.074252489
1.074252489
1.074252489
1.074252489
55295.003
55295.18326
55295.53993
55296.07179
55296.79835
55297.60679
55298.03199
55296.7915
9.218998681
3.603500312
1.879634729
1.333921274
1.154403767
1.097045111
1.080137696
1.07563149
1.074547184
1.074310293
1.07426296
1.074254251
1.074252766
1.07425253
1.074252494
1.07425249
1.074252489
1.074252489
1.074252489
1.074252489
1.074252489
1.074252489
1.074252489
1.074252489
1.074252489
1.074252489
1.074252489
1.074252489
1.074252489
1.074252489
1.074252489
1.074252489
1.074252489
1.074252489
1.074252489
1.074252489
1.074252489
1.074252489
1.074252489
1.074252489
1.074252489
1.074252489
55294.94073
55295.16194
55295.55804
55296.05705
55296.57428
55296.95333
55296.80553
55295.01377
3.55918384
2.087907624
1.456548517
1.208419131
1.117258207
1.086686655
1.077489511
1.075014765
1.074415981
1.074284651
1.07425833
1.074253474
1.074252644
1.074252512
1.074252492
1.074252489
1.074252489
1.074252489
1.074252489
1.074252489
1.074252489
1.074252489
1.074252489
1.074252489
1.074252489
1.074252489
1.074252489
1.074252489
1.074252489
1.074252489
1.074252489
1.074252489
1.074252489
1.074252489
1.074252489
1.074252489
1.074252489
1.074252489
1.074252489
1.074252489
1.074252489
1.074252489
55294.82028
55295.05158
55295.41228
55295.78879
55296.0944
55296.16953
55295.67921
55294.12868
1.949375577
1.497048855
1.251278531
1.139867511
1.095846184
1.080578013
1.075911532
1.074645145
1.074337032
1.074269173
1.074255527
1.074253002
1.07425257
1.074252501
1.07425249
1.074252489
1.074252489
1.074252489
1.074252489
1.074252489
1.074252489
1.074252489
1.074252489
1.074252489
1.074252489
1.074252489
1.074252489
1.074252489
1.074252489
1.074252489
1.074252489
1.074252489
1.074252489
1.074252489
1.074252489
1.074252489
1.074252489
1.074252489
1.074252489
1.074252489
1.074252489
1.074252489
55294.56789
55294.76225
55295.03558
55295.30765
55295.4638
55295.3547
55294.71938
55294.54194
1.405951614
1.250882416
1.15300536
1.10449172
1.084394775
1.077255776
1.075045706
1.074441189
1.074293284
1.074260567
1.074253964
1.074252739
1.074252528
1.074252495
1.07425249
1.074252489
1.074252489
1.074252489
1.074252489
1.074252489
1.074252489
1.074252489
1.074252489
1.074252489
1.074252489
1.074252489
1.074252489
1.074252489
1.074252489
1.074252489
1.074252489
1.074252489
1.074252489
1.074252489
1.074252489
1.074252489
1.074252489
1.074252489
1.074252489
1.074252489
1.074252489
1.074252489
55294.21168
55294.35622
55294.55999
55294.7404
55294.79421
55294.59199
55293.97013
55293.6335
1.201745991
1.146069219
1.107545252
1.087347347
1.078709138
1.075584703
1.074606728
1.074337201
1.074270881
1.074256144
1.074253158
1.074252603
1.074252507
1.074252491
1.074252489
1.074252489
1.074252489
1.074252489
1.074252489
1.074252489
1.074252489
1.074252489
1.074252489
1.074252489
1.074252489
1.074252489
1.074252489
1.074252489
1.074252489
1.074252489
1.074252489
1.074252489
1.074252489
1.074252489
1.074252489
1.074252489
1.074252489
1.074252489
1.074252489
1.074252489
1.074252489
1.074252489
55293.8514
55293.95284
55294.08816
55294.19137
55294.1783
55293.95375
55293.44807
55292.7517
1.122301798
1.102210697
1.087548109
1.079575054
1.076085922
1.074805309
1.074400457
1.074288062
1.074260246
1.074254036
1.074252773
1.074252537
1.074252497
1.07425249
1.074252489
1.074252489
1.074252489
1.074252489
1.074252489
1.074252489
1.074252489
1.074252489
1.074252489
1.074252489
1.074252489
1.074252489
1.074252489
1.074252489
1.074252489
1.074252489
1.074252489
1.074252489
1.074252489
1.074252489
1.074252489
1.074252489
1.074252489
1.074252489
1.074252489
1.074252489
1.074252489
1.074252489
55293.5211
55293.58827
55293.67128
55293.72088
55293.67648
55293.48097
55293.11716
55292.6581
1.091802303
1.084608385
1.079259207
1.076284017
1.074959557
1.074467406
1.074310386
1.074266482
1.074255554
1.074253103
1.074252602
1.074252508
1.074252492
1.074252489
1.074252489
1.074252489
1.074252489
1.074252489
1.074252489
1.074252489
1.074252489
1.074252489
1.074252489
1.074252489
1.074252489
1.074252489
1.074252489
1.074252489
1.074252489
1.074252489
1.074252489
1.074252489
1.074252489
1.074252489
1.074252489
1.074252489
1.074252489
1.074252489
1.074252489
1.074252489
1.074252489
1.074252489
55293.24312
55293.284
55293.33076
55293.3495
55293.30124
55293.15568
55292.91281
55292.63976
1.080492643
1.077906554
1.076032629
1.074981827
1.074508558
1.074330898
1.074273743
1.074257653
1.074253625
1.074252717
1.074252531
1.074252496
1.07425249
1.074252489
1.074252489
1.074252489
1.074252489
1.074252489
1.074252489
1.074252489
1.074252489
1.074252489
1.074252489
1.074252489
1.074252489
1.074252489
1.074252489
1.074252489
1.074252489
1.074252489
1.074252489
1.074252489
1.074252489
1.074252489
1.074252489
1.074252489
1.074252489
1.074252489
1.074252489
1.074252489
1.074252489
1.074252489
55293.02773
55293.05029
55293.0738
55293.07712
55293.03747
55292.93939
55292.78565
55292.62454
1.076450363
1.075489973
1.074852511
1.074499465
1.074339771
1.074279386
1.074259822
1.074254279
1.074252885
1.074252569
1.074252504
1.074252491
1.074252489
1.074252489
1.074252489
1.074252489
1.074252489
1.074252489
1.074252489
1.074252489
1.074252489
1.074252489
1.074252489
1.074252489
1.074252489
1.074252489
1.074252489
1.074252489
1.074252489
1.074252489
1.074252489
1.074252489
1.074252489
1.074252489
1.074252489
1.074252489
1.074252489
1.074252489
1.074252489
1.074252489
1.074252489
1.074252489
55292.87232
55292.88366
55292.89393
55292.89089
55292.86217
55292.80002
55292.70659
55292.61334
1.075041437
1.074660682
1.074445635
1.074331713
1.074280571
1.074261184
1.074254871
1.074253073
1.074252619
1.074252515
1.074252494
1.07425249
1.074252489
1.074252489
1.074252489
1.074252489
1.074252489
1.074252489
1.074252489
1.074252489
1.074252489
1.074252489
1.074252489
1.074252489
1.074252489
1.074252489
1.074252489
1.074252489
1.074252489
1.074252489
1.074252489
1.074252489
1.074252489
1.074252489
1.074252489
1.074252489
1.074252489
1.074252489
1.074252489
1.074252489
1.074252489
1.074252489
55292.7664
55292.77159
55292.77523
55292.77057
55292.75118
55292.71329
55292.65824
55292.60525
1.074551091
1.074386834
1.074312612
1.074276724
1.074261052
1.074255145
1.074253219
1.074252669
1.074252529
1.074252497
1.07425249
1.074252489
1.074252489
1.074252489
1.074252489
1.074252489
1.074252489
1.074252489
1.074252489
1.074252489
1.074252489
1.074252489
1.074252489
1.074252489
1.074252489
1.074252489
1.074252489
1.074252489
1.074252489
1.074252489
1.074252489
1.074252489
1.074252489
1.074252489
1.074252489
1.074252489
1.074252489
1.074252489
1.074252489
1.074252489
1.074252489
1.074252489
55292.6974
55292.6995
55292.70022
55292.69597
55292.6835
55292.66103
55292.62937
55292.59908
1.074374787
1.07429813
1.074270965
1.074259638
1.07425498
1.074253259
1.074252701
1.074252541
1.074252501
1.074252491
1.074252489
1.074252489
1.074252489
1.074252489
1.074252489
1.074252489
1.074252489
1.074252489
1.074252489
1.074252489
1.074252489
1.074252489
1.074252489
1.074252489
1.074252489
1.074252489
1.074252489
1.074252489
1.074252489
1.074252489
1.074252489
1.074252489
1.074252489
1.074252489
1.074252489
1.074252489
1.074252489
1.074252489
1.074252489
1.074252489
1.074252489
1.074252489
55292.65405
55292.65474
55292.65438
55292.65115
55292.64342
55292.63039
55292.61254
55292.59494
1.074306887
1.074269088
1.074258274
1.074254561
1.074253187
1.074252702
1.074252547
1.074252503
1.074252492
1.074252489
1.074252489
1.074252489
1.074252489
1.074252489
1.074252489
1.074252489
1.074252489
1.074252489
1.074252489
1.074252489
1.074252489
1.074252489
1.074252489
1.074252489
1.074252489
1.074252489
1.074252489
1.074252489
1.074252489
1.074252489
1.074252489
1.074252489
1.074252489
1.074252489
1.074252489
1.074252489
1.074252489
1.074252489
1.074252489
1.074252489
1.074252489
1.074252489
55292.62758
55292.62769
55292.62709
55292.62486
55292.62022
55292.61282
55292.60293
55292.59175
1.074278271
1.074259092
1.074254408
1.074253097
1.074252681
1.074252546
1.074252504
1.074252493
1.07425249
1.074252489
1.074252489
1.074252489
1.074252489
1.074252489
1.074252489
1.074252489
1.074252489
1.074252489
1.074252489
1.074252489
1.074252489
1.074252489
1.074252489
1.074252489
1.074252489
1.074252489
1.074252489
1.074252489
1.074252489
1.074252489
1.074252489
1.074252489
1.074252489
1.074252489
1.074252489
1.074252489
1.074252489
1.074252489
1.074252489
1.074252489
1.074252489
1.074252489
55292.61175
55292.61167
55292.61114
55292.6097
55292.60701
55292.6029
55292.59754
55292.59143
1.074265137
1.07425534
1.074253184
1.074252676
1.074252542
1.074252504
1.074252493
1.07425249
1.074252489
1.074252489
1.074252489
1.074252489
1.074252489
1.074252489
1.074252489
1.074252489
1.074252489
1.074252489
1.074252489
1.074252489
1.074252489
1.074252489
1.074252489
1.074252489
1.074252489
1.074252489
1.074252489
1.074252489
1.074252489
1.074252489
1.074252489
1.074252489
1.074252489
1.074252489
1.074252489
1.074252489
1.074252489
1.074252489
1.074252489
1.074252489
1.074252489
1.074252489
55292.60236
55292.60226
55292.60188
55292.60103
55292.59953
55292.59734
55292.59452
55292.59135
1.074258691
1.074253775
1.074252763
1.074252552
1.074252504
1.074252493
1.07425249
1.074252489
1.074252489
1.074252489
1.074252489
1.074252489
1.074252489
1.074252489
1.074252489
1.074252489
1.074252489
1.074252489
1.074252489
1.074252489
1.074252489
1.074252489
1.074252489
1.074252489
1.074252489
1.074252489
1.074252489
1.074252489
1.074252489
1.074252489
1.074252489
1.074252489
1.074252489
1.074252489
1.074252489
1.074252489
1.074252489
1.074252489
1.074252489
1.074252489
1.074252489
1.074252489
55292.59668
55292.59661
55292.59639
55292.59594
55292.5952
55292.59414
55292.5928
55292.5913
1.074255314
1.074253047
1.074252598
1.074252511
1.074252494
1.07425249
1.074252489
1.074252489
1.074252489
1.074252489
1.074252489
1.074252489
1.074252489
1.074252489
1.074252489
1.074252489
1.074252489
1.074252489
1.074252489
1.074252489
1.074252489
1.074252489
1.074252489
1.074252489
1.074252489
1.074252489
1.074252489
1.074252489
1.074252489
1.074252489
1.074252489
1.074252489
1.074252489
1.074252489
1.074252489
1.074252489
1.074252489
1.074252489
1.074252489
1.074252489
1.074252489
1.074252489
55292.59287
55292.59285
55292.59278
55292.59264