/*--------------------------------*- C++ -*----------------------------------*\
  =========                 |
  \\      /  F ield         | OpenFOAM: The Open Source CFD Toolbox
   \\    /   O peration     | Website:  https://openfoam.org
    \\  /    A nd           | Version:  6
     \\/     M anipulation  |
\*---------------------------------------------------------------------------*/
FoamFile
{
    version     2.0;
    format      ascii;
    class       volScalarField;
    location    "0.03";
    object      Temperature;
}
// * * * * * * * * * * * * * * * * * * * * * * * * * * * * * * * * * * * * * //

dimensions      [0 0 0 1 0 0 0];

internalField   nonuniform List<scalar> 
2500
(
300.0221151
300.0217778
300.0208298
300.0189533
300.0158979
300.0115891
300.0061997
300.0001683
300.0000191
300.0000037
300.0000007
300.0000001
300
300
300
300
300
300
300
300
300
300
300
300
300
300
300
300
300
300
300
300
300
300
300
300
300
300
300
300
300
300
300
300
300
300
300
300
300
300
300.0741618
300.0731745
300.0702106
300.0641127
300.0539559
300.0394356
300.0211312
300.0005751
300.0000664
300.0000131
300.0000026
300.0000005
300.0000001
300
300
300
300
300
300
300
300
300
300
300
300
300
300
300
300
300
300
300
300
300
300
300
300
300
300
300
300
300
300
300
300
300
300
300
300
300
300.1519446
300.150548
300.1453602
300.1336457
300.1131775
300.0831203
300.0446636
300.0012208
300.0001456
300.0000302
300.0000064
300.0000015
300.0000004
300.0000001
300
300
300
300
300
300
300
300
300
300
300
300
300
300
300
300
300
300
300
300
300
300
300
300
300
300
300
300
300
300
300
300
300
300
300
300
300.2803527
300.2793498
300.2719889
300.2523264
300.2154207
300.1591909
300.0858371
300.002363
300.0002968
300.0000669
300.0000163
300.0000044
300.0000013
300.0000004
300.0000001
300
300
300
300
300
300
300
300
300
300
300
300
300
300
300
300
300
300
300
300
300
300
300
300
300
300
300
300
300
300
300
300
300
300
300
300.4971098
300.4986983
300.4903639
300.4596964
300.3961289
300.2947727
300.1595449
300.004445
300.0006045
300.0001549
300.000045
300.0000143
300.0000045
300.0000013
300.0000004
300.0000001
300
300
300
300
300
300
300
300
300
300
300
300
300
300
300
300
300
300
300
300
300
300
300
300
300
300
300
300
300
300
300
300
300
300
300.8601636
300.8696369
300.8646322
300.8200437
300.7138908
300.5351804
300.2907718
300.0082746
300.0012742
300.0003888
300.0001355
300.0000486
300.0000164
300.000005
300.0000014
300.0000003
300.0000001
300
300
300
300
300
300
300
300
300
300
300
300
300
300
300
300
300
300
300
300
300
300
300
300
300
300
300
300
300
300
300
300
300
301.4563767
301.4853274
301.4950005
301.4361405
301.2640998
300.9549944
300.5208047
300.0154048
300.0028617
300.0010678
300.0004323
300.0001674
300.0000584
300.0000181
300.000005
300.0000012
300.0000003
300.0000001
300
300
300
300
300
300
300
300
300
300
300
300
300
300
300
300
300
300
300
300
300
300
300
300
300
300
300
300
300
300
300
300
302.4097332
302.4815939
302.531698
302.4664636
302.1971333
301.6732289
300.9159554
300.029054
300.0069786
300.0031394
300.0014055
300.000567
300.0002006
300.0000623
300.0000171
300.0000042
300.0000009
300.0000002
300
300
300
300
300
300
300
300
300
300
300
300
300
300
300
300
300
300
300
300
300
300
300
300
300
300
300
300
300
300
300
300
303.8842745
304.0428572
304.1860483
304.1422144
303.7388643
302.871955
301.5794706
300.0565229
300.0184143
300.0095292
300.0045119
300.0018524
300.0006573
300.0002038
300.0000559
300.0000137
300.0000031
300.0000006
300.0000001
300
300
300
300
300
300
300
300
300
300
300
300
300
300
300
300
300
300
300
300
300
300
300
300
300
300
300
300
300
300
300
306.0724686
306.3924243
306.7254989
306.7704858
306.204082
304.8165352
302.669774
300.1157257
300.0512221
300.0288589
300.0140062
300.0057713
300.0020419
300.00063
300.000172
300.000042
300.0000093
300.0000019
300.0000003
300.0000001
300
300
300
300
300
300
300
300
300
300
300
300
300
300
300
300
300
300
300
300
300
300
300
300
300
300
300
300
300
300
309.1549896
309.7466598
310.4241705
310.6935791
309.9860043
307.8816532
304.4387126
300.2524496
300.1450911
300.0850862
300.041514
300.0170321
300.0059876
300.0018357
300.0004982
300.0001212
300.0000267
300.0000054
300.000001
300.0000002
300
300
300
300
300
300
300
300
300
300
300
300
300
300
300
300
300
300
300
300
300
300
300
300
300
300
300
300
300
300
313.2215985
314.2194654
315.4589143
316.2005901
315.5246876
312.6056805
307.323411
300.5830956
300.4060426
300.2404035
300.1165644
300.0473987
300.0165236
300.0050292
300.0013566
300.0003283
300.000072
300.0000144
300.0000027
300.0000005
300.0000001
300
300
300
300
300
300
300
300
300
300
300
300
300
300
300
300
300
300
300
300
300
300
300
300
300
300
300
300
300
318.1877872
319.7441171
321.8414913
323.4554453
323.2399419
319.7301476
312.1096229
301.3900499
301.0984152
300.6444129
300.3084402
300.1239802
300.0428113
300.01293
300.0034656
300.0008342
300.0001822
300.0000364
300.0000067
300.0000011
300.0000002
300
300
300
300
300
300
300
300
300
300
300
300
300
300
300
300
300
300
300
300
300
300
300
300
300
300
300
300
300
323.7796523
326.0790876
329.3733539
332.3399524
333.2257811
329.8657962
319.9647693
303.3091879
302.8303669
301.6278284
300.766225
300.3040097
300.1039242
300.0311395
300.0082933
300.0019859
300.0004317
300.0000859
300.0000158
300.0000027
300.0000004
300.0000001
300
300
300
300
300
300
300
300
300
300
300
300
300
300
300
300
300
300
300
300
300
300
300
300
300
300
300
300
329.4954348
332.7010831
337.3128628
342.0266628
344.7856102
342.8345498
331.9407485
307.6650186
306.8795533
303.8562137
301.781538
300.6972455
300.2359175
300.0701328
300.0185615
300.0044222
300.0009573
300.0001898
300.0000347
300.0000059
300.0000009
300.0000001
300
300
300
300
300
300
300
300
300
300
300
300
300
300
300
300
300
300
300
300
300
300
300
300
300
300
300
300
333.648582
337.5625346
343.8516828
350.6724299
356.4109282
357.850557
348.6437867
316.9962632
315.6658761
308.5340622
303.8667195
301.4926224
300.4999501
300.1474834
300.0387982
300.0091985
300.0019833
300.0003919
300.0000715
300.0000121
300.0000019
300.0000003
300
300
300
300
300
300
300
300
300
300
300
300
300
300
300
300
300
300
300
300
300
300
300
300
300
300
300
300
335.657308
339.4374639
346.4268206
355.6593695
365.7777628
373.581783
370.5149356
335.5827409
333.2367377
317.585032
307.8155136
302.9767682
300.9874131
300.2891573
300.0756354
300.0178503
300.0038343
300.0007553
300.0001373
300.0000232
300.0000037
300.0000005
300.0000001
300
300
300
300
300
300
300
300
300
300
300
300
300
300
300
300
300
300
300
300
300
300
300
300
300
300
300
336.7088749
339.7993453
346.0883681
355.9198703
370.3028793
387.7930724
397.6813891
369.3853216
365.3782005
333.6359704
314.6783733
305.5207157
301.8147187
300.5278305
300.137341
300.0322773
300.0069094
300.0013571
300.0002462
300.0000415
300.0000065
300.000001
300.0000001
300
300
300
300
300
300
300
300
300
300
300
300
300
300
300
300
300
300
300
300
300
300
300
300
300
300
300
337.8115173
340.3878907
346.114696
356.115544
372.6914258
397.9236094
429.3762538
424.7959963
418.7689217
359.5673821
325.5655693
309.5062164
303.099255
300.8959477
300.2320247
300.0543246
300.0115931
300.0022713
300.0004111
300.0000691
300.0000109
300.0000016
300.0000002
300
300
300
300
300
300
300
300
300
300
300
300
300
300
300
300
300
300
300
300
300
300
300
300
300
300
300
339.3100127
341.7202471
347.5164737
358.4822898
378.0809369
411.4639719
463.4524587
506.0792275
498.7309405
397.4757707
341.2291612
315.17757
304.9128152
301.4126375
300.3643259
300.0850214
300.0180955
300.0035372
300.000639
300.0001073
300.0000168
300.0000025
300.0000003
300
300
300
300
300
300
300
300
300
300
300
300
300
300
300
300
300
300
300
300
300
300
300
300
300
300
300
341.2853889
343.8529708
350.3677892
363.335533
387.4344524
430.3165453
502.2683883
612.2569406
605.7670118
447.1859456
361.491159
322.4453676
307.2213248
302.0670682
300.5312557
300.1236354
300.0262547
300.0051225
300.0009239
300.0001549
300.0000243
300.0000036
300.0000005
300.0000001
300
300
300
300
300
300
300
300
300
300
300
300
300
300
300
300
300
300
300
300
300
300
300
300
300
300
343.5519474
346.4619527
354.07635
369.7096291
399.5523763
454.627784
552.8995709
733.4039797
732.0360483
504.8716717
384.7436409
330.721619
309.8356278
302.8051457
300.7189288
300.1669397
300.0353865
300.0068938
300.0012418
300.000208
300.0000325
300.0000048
300.0000007
300.0000001
300
300
300
300
300
300
300
300
300
300
300
300
300
300
300
300
300
300
300
300
300
300
300
300
300
300
345.7630195
349.0579747
357.8179094
376.1105736
411.5881557
478.6070905
602.4908163
853.7140718
860.3528076
562.7198679
407.854478
338.8968638
312.4066673
303.5286473
300.9024382
300.2092002
300.0442841
300.0086174
300.0015508
300.0002595
300.0000406
300.0000059
300.0000008
300.0000001
300
300
300
300
300
300
300
300
300
300
300
300
300
300
300
300
300
300
300
300
300
300
300
300
300
300
347.5261647
351.1454406
360.8493976
381.3209806
421.5079577
498.8772526
646.6125998
952.2758732
966.7936566
610.2294911
426.708764
345.5358756
314.4877822
304.1128799
301.0503534
300.243215
300.0514373
300.0100017
300.0017987
300.0003008
300.000047
300.0000069
300.000001
300.0000001
300
300
300
300
300
300
300
300
300
300
300
300
300
300
300
300
300
300
300
300
300
300
300
300
300
300
348.5058781
352.3118652
362.557819
384.2941187
427.2997014
511.0556698
675.6651226
1008.754636
1027.573609
637.1755962
437.3558832
349.2739982
315.6571607
304.44067
301.1332493
300.2622611
300.0554398
300.0107759
300.0019373
300.0003239
300.0000506
300.0000074
300.000001
300.0000001
300
300
300
300
300
300
300
300
300
300
300
300
300
300
300
300
300
300
300
300
300
300
300
300
300
300
348.505874
352.3118613
362.5578157
384.2941167
427.2997014
511.0556721
675.6651206
1008.754631
1027.573602
637.175593
437.355882
349.2739978
315.6571606
304.4406699
301.1332493
300.2622611
300.0554398
300.0107759
300.0019373
300.0003239
300.0000506
300.0000074
300.000001
300.0000001
300
300
300
300
300
300
300
300
300
300
300
300
300
300
300
300
300
300
300
300
300
300
300
300
300
300
347.5261525
351.1454289
360.8493875
381.3209742
421.5079576
498.8772604
646.6126076
952.2758611
966.7936389
610.2294828
426.708761
345.5358747
314.4877819
304.1128798
301.0503534
300.243215
300.0514373
300.0100017
300.0017987
300.0003008
300.000047
300.0000069
300.000001
300.0000001
300
300
300
300
300
300
300
300
300
300
300
300
300
300
300
300
300
300
300
300
300
300
300
300
300
300
345.7629984
349.0579542
357.817891
376.1105604
411.5881523
478.607099
602.4908339
853.7140631
860.3527893
562.7198596
407.8544752
338.8968629
312.406667
303.5286472
300.9024382
300.2092002
300.0442841
300.0086174
300.0015508
300.0002595
300.0000406
300.0000059
300.0000008
300.0000001
300
300
300
300
300
300
300
300
300
300
300
300
300
300
300
300
300
300
300
300
300
300
300
300
300
300
343.5519169
346.4619224
354.0763211
369.7096049
399.5523622
454.627784
552.8995762
733.4039856
732.0360437
504.8716698
384.7436403
330.7216188
309.8356278
302.8051457
300.7189288
300.1669397
300.0353865
300.0068938
300.0012418
300.000208
300.0000325
300.0000048
300.0000007
300.0000001
300
300
300
300
300
300
300
300
300
300
300
300
300
300
300
300
300
300
300
300
300
300
300
300
300
300
341.2853488
343.8529298
350.3677474
363.3354925
387.4344159
430.3165152
502.26835
612.2569662
605.7670262
447.1859515
361.491161
322.4453682
307.2213249
302.0670683
300.5312557
300.1236354
300.0262547
300.0051225
300.0009239
300.0001549
300.0000243
300.0000036
300.0000005
300.0000001
300
300
300
300
300
300
300
300
300
300
300
300
300
300
300
300
300
300
300
300
300
300
300
300
300
300
339.3099642
341.7201961
347.5164185
358.4822301
378.0808725
411.4639005
463.4523679
506.0792675
498.7309637
397.4757799
341.2291643
315.1775709
304.9128155
301.4126376
300.3643259
300.0850214
300.0180955
300.0035372
300.000639
300.0001073
300.0000168
300.0000025
300.0000003
300
300
300
300
300
300
300
300
300
300
300
300
300
300
300
300
300
300
300
300
300
300
300
300
300
300
300
337.8114628
340.3878321
346.1146295
356.1154667
372.6913336
397.9234962
429.376166
424.7960312
418.7689363
359.5673884
325.5655716
309.5062171
303.0992552
300.8959478
300.2320247
300.0543246
300.0115931
300.0022713
300.0004111
300.0000691
300.0000109
300.0000016
300.0000002
300
300
300
300
300
300
300
300
300
300
300
300
300
300
300
300
300
300
300
300
300
300
300
300
300
300
300
336.7088181
339.7992828
346.0882948
355.9197822
370.3027711
387.7929673
397.6813156
369.385335
365.3782059
333.6359731
314.6783744
305.5207161
301.8147188
300.5278305
300.137341
300.0322773
300.0069094
300.0013571
300.0002462
300.0000415
300.0000065
300.000001
300.0000001
300
300
300
300
300
300
300
300
300
300
300
300
300
300
300
300
300
300
300
300
300
300
300
300
300
300
300
335.6572522
339.4374013
346.4267465
355.6592835
365.777669
373.5816951
370.5148756
335.5827421
333.2367391
317.5850329
307.815514
302.9767683
300.9874131
300.2891573
300.0756354
300.0178503
300.0038343
300.0007553
300.0001373
300.0000232
300.0000037
300.0000005
300.0000001
300
300
300
300
300
300
300
300
300
300
300
300
300
300
300
300
300
300
300
300
300
300
300
300
300
300
300
333.6485317
337.5624783
343.8516178
350.6723567
356.4108511
357.8504868
348.6437418
316.9962617
315.6658761
308.5340624
303.8667195
301.4926224
300.4999501
300.1474834
300.0387982
300.0091985
300.0019833
300.0003919
300.0000715
300.0000121
300.0000019
300.0000003
300
300
300
300
300
300
300
300
300
300
300
300
300
300
300
300
300
300
300
300
300
300
300
300
300
300
300
300
329.4953929
332.7010368
337.3128097
342.0266034
344.785549
342.8344964
331.9407172
307.6650177
306.8795531
303.8562136
301.781538
300.6972455
300.2359175
300.0701328
300.0185615
300.0044222
300.0009573
300.0001898
300.0000347
300.0000059
300.0000009
300.0000001
300
300
300
300
300
300
300
300
300
300
300
300
300
300
300
300
300
300
300
300
300
300
300
300
300
300
300
300
323.7796184
326.0790502
329.3733115
332.3399059
333.2257347
329.8657579
319.9647488
303.3091868
302.8303667
301.6278283
300.766225
300.3040097
300.1039242
300.0311395
300.0082933
300.0019859
300.0004317
300.0000859
300.0000158
300.0000027
300.0000004
300.0000001
300
300
300
300
300
300
300
300
300
300
300
300
300
300
300
300
300
300
300
300
300
300
300
300
300
300
300
300
318.1877613
319.7440884
321.8414591
323.4554103
323.2399076
319.7301196
312.1096072
301.3900493
301.0984151
300.6444129
300.3084402
300.1239802
300.0428113
300.01293
300.0034656
300.0008342
300.0001822
300.0000364
300.0000067
300.0000011
300.0000002
300
300
300
300
300
300
300
300
300
300
300
300
300
300
300
300
300
300
300
300
300
300
300
300
300
300
300
300
300
313.2215797
314.2194446
315.458891
316.2005651
315.5246631
312.6056604
307.3233995
300.5830953
300.4060425
300.2404035
300.1165644
300.0473987
300.0165236
300.0050292
300.0013566
300.0003283
300.000072
300.0000144
300.0000027
300.0000005
300.0000001
300
300
300
300
300
300
300
300
300
300
300
300
300
300
300
300
300
300
300
300
300
300
300
300
300
300
300
300
300
309.1549766
309.7466456
310.4241547
310.6935622
309.985988
307.8816399
304.438705
300.2524494
300.145091
300.0850862
300.041514
300.0170321
300.0059876
300.0018357
300.0004982
300.0001212
300.0000267
300.0000054
300.000001
300.0000002
300
300
300
300
300
300
300
300
300
300
300
300
300
300
300
300
300
300
300
300
300
300
300
300
300
300
300
300
300
300
306.0724601
306.392415
306.7254888
306.7704752
306.2040719
304.8165272
302.6697696
300.1157256
300.0512221
300.0288589
300.0140062
300.0057713
300.0020419
300.00063
300.000172
300.000042
300.0000093
300.0000019
300.0000003
300.0000001
300
300
300
300
300
300
300
300
300
300
300
300
300
300
300
300
300
300
300
300
300
300
300
300
300
300
300
300
300
300
303.8842692
304.0428514
304.1860421
304.1422081
303.7388585
302.8719506
301.5794681
300.0565229
300.0184143
300.0095292
300.0045119
300.0018524
300.0006573
300.0002038
300.0000559
300.0000137
300.0000031
300.0000006
300.0000001
300
300
300
300
300
300
300
300
300
300
300
300
300
300
300
300
300
300
300
300
300
300
300
300
300
300
300
300
300
300
300
302.40973
302.4815905
302.5316944
302.46646
302.1971301
301.6732264
300.915954
300.0290539
300.0069786
300.0031394
300.0014055
300.000567
300.0002006
300.0000623
300.0000171
300.0000042
300.0000009
300.0000002
300
300
300
300
300
300
300
300
300
300
300
300
300
300
300
300
300
300
300
300
300
300
300
300
300
300
300
300
300
300
300
300
301.4563748
301.4853254
301.4949985
301.4361385
301.2640979
300.954993
300.5208039
300.0154048
300.0028617
300.0010678
300.0004323
300.0001674
300.0000584
300.0000181
300.000005
300.0000012
300.0000003
300.0000001
300
300
300
300
300
300
300
300
300
300
300
300
300
300
300
300
300
300
300
300
300
300
300
300
300
300
300
300
300
300
300
300
300.8601626
300.8696358
300.8646311
300.8200426
300.7138898
300.5351796
300.2907714
300.0082746
300.0012742
300.0003888
300.0001355
300.0000486
300.0000164
300.000005
300.0000014
300.0000003
300.0000001
300
300
300
300
300
300
300
300
300
300
300
300
300
300
300
300
300
300
300
300
300
300
300
300
300
300
300
300
300
300
300
300
300
300.4971092
300.4986977
300.4903633
300.4596958
300.3961283
300.2947723
300.1595447
300.004445
300.0006045
300.0001549
300.000045
300.0000143
300.0000045
300.0000013
300.0000004
300.0000001
300
300
300
300
300
300
300
300
300
300
300
300
300
300
300
300
300
300
300
300
300
300
300
300
300
300
300
300
300
300
300
300
300
300
300.2803524
300.2793494
300.2719885
300.2523261
300.2154204
300.1591907
300.085837
300.002363
300.0002968
300.0000669
300.0000163
300.0000044
300.0000013
300.0000004
300.0000001
300
300
300
300
300
300
300
300
300
300
300
300
300
300
300
300
300
300
300
300
300
300
300
300
300
300
300
300
300
300
300
300
300
300
300
300.1519444
300.1505478
300.1453601
300.1336456
300.1131774
300.0831202
300.0446635
300.0012208
300.0001456
300.0000302
300.0000064
300.0000015
300.0000004
300.0000001
300
300
300
300
300
300
300
300
300
300
300
300
300
300
300
300
300
300
300
300
300
300
300
300
300
300
300
300
300
300
300
300
300
300
300
300
300.0741618
300.0731744
300.0702105
300.0641126
300.0539558
300.0394355
300.0211311
300.0005751
300.0000664
300.0000131
300.0000026
300.0000005
300.0000001
300
300
300
300
300
300
300
300
300
300
300
300
300
300
300
300
300
300
300
300
300
300
300
300
300
300
300
300
300
300
300
300
300
300
300
300
300
300.0221151
300.0217777
300.0208297
300.0189533
300.0158979
300.0115891
300.0061997
300.0001683
300.0000191
300.0000037
300.0000007
300.0000001
300
300
300
300
300
300
300
300
300
300
300
300
300
300
300
300
300
300
300
300
300
300
300
300
300
300
300
300
300
300
300
300
300
300
300
300
300
300
)
;

boundaryField
{
    lowerWall
    {
        type            fixedValue;
        value           uniform 300;
    }
    atmosphere
    {
        type            zeroGradient;
    }
    rightWall
    {
        type            empty;
    }
    leftWall
    {
        type            empty;
    }
    frontAndBack
    {
        type            fixedValue;
        value           uniform 300;
    }
}


// ************************************************************************* //
