/*--------------------------------*- C++ -*----------------------------------*\
  =========                 |
  \\      /  F ield         | OpenFOAM: The Open Source CFD Toolbox
   \\    /   O peration     | Website:  https://openfoam.org
    \\  /    A nd           | Version:  6
     \\/     M anipulation  |
\*---------------------------------------------------------------------------*/
FoamFile
{
    version     2.0;
    format      ascii;
    class       volVectorField;
    location    "0.03";
    object      U;
}
// * * * * * * * * * * * * * * * * * * * * * * * * * * * * * * * * * * * * * //

dimensions      [0 1 -1 0 0 0 0];

internalField   nonuniform List<vector> 
2500
(
(0 -0.05049782557 -0.0009703819552)
(0 -0.04662127054 -0.002179903962)
(0 -0.04124665432 -0.003211823981)
(0 -0.03374579642 -0.004050822236)
(0 -0.02484271509 -0.0046695604)
(0 -0.01548136423 -0.005036627849)
(0 -0.001690344246 -0.004699907426)
(0 5.735038814e-05 -0.0001330922258)
(0 -7.666459573e-15 -6.922249841e-19)
(0 -1.524926963e-14 -6.466624246e-17)
(0 -1.50387994e-14 -1.265162916e-16)
(0 -1.472824693e-14 -1.840762409e-16)
(0 -1.430857537e-14 -2.35615522e-16)
(0 -1.379317532e-14 -2.798297427e-16)
(0 -1.319752692e-14 -3.158928687e-16)
(0 -1.253828388e-14 -3.434575764e-16)
(0 -1.183235828e-14 -3.626122306e-16)
(0 -1.109612224e-14 -3.738076118e-16)
(0 -1.034477218e-14 -3.777676628e-16)
(0 -9.591874964e-15 -3.753970619e-16)
(0 -8.8490923e-15 -3.676954275e-16)
(0 -8.126063896e-15 -3.556844579e-16)
(0 -7.430420334e-15 -3.40351039e-16)
(0 -6.767893351e-15 -3.226067558e-16)
(0 -6.142492019e-15 -3.032624507e-16)
(0 -5.556717118e-15 -2.830154533e-16)
(0 -5.011791122e-15 -2.624467058e-16)
(0 -4.507886757e-15 -2.420250405e-16)
(0 -4.044342266e-15 -2.221161754e-16)
(0 -3.619855955e-15 -2.029944199e-16)
(0 -3.232656143e-15 -1.848555475e-16)
(0 -2.880645302e-15 -1.678297266e-16)
(0 -2.561519019e-15 -1.519937668e-16)
(0 -2.27286158e-15 -1.373822361e-16)
(0 -2.012220679e-15 -1.239972292e-16)
(0 -1.777163995e-15 -1.118167197e-16)
(0 -1.565320445e-15 -1.008015435e-16)
(0 -1.374408727e-15 -9.090111607e-17)
(0 -1.20225556e-15 -8.20580289e-17)
(0 -1.046805696e-15 -7.421167692e-17)
(0 -9.061254922e-16 -6.730107311e-17)
(0 -7.784015236e-16 -6.126699475e-17)
(0 -6.619354412e-16 -5.605359524e-17)
(0 -5.551360148e-16 -5.160960552e-17)
(0 -4.565090589e-16 -4.788925272e-17)
(0 -3.646456316e-16 -4.485307155e-17)
(0 -2.782083433e-16 -4.246898966e-17)
(0 -1.959140709e-16 -4.071486555e-17)
(0 -1.165059111e-16 -3.958682548e-17)
(0 -3.868337548e-17 -3.913202805e-17)
(0 -0.0531543874 -0.002984959688)
(0 -0.04898591225 -0.006694707501)
(0 -0.04324489468 -0.009846631772)
(0 -0.03529848435 -0.01239449069)
(0 -0.02592423981 -0.01427034133)
(0 -0.01608742093 -0.01536056877)
(0 -0.00167307731 -0.01429858992)
(0 5.857580752e-05 -0.0003769842838)
(0 -7.730479955e-15 -2.219183576e-18)
(0 -1.537545951e-14 -1.962728304e-16)
(0 -1.51582094e-14 -3.838871049e-16)
(0 -1.483734616e-14 -5.583105369e-16)
(0 -1.440432887e-14 -7.142461177e-16)
(0 -1.387345266e-14 -8.477283503e-16)
(0 -1.326115475e-14 -9.562786802e-16)
(0 -1.258500324e-14 -1.038898048e-15)
(0 -1.186270832e-14 -1.095924723e-15)
(0 -1.111127768e-14 -1.128800211e-15)
(0 -1.034636163e-14 -1.1397887e-15)
(0 -9.581802729e-15 -1.131689967e-15)
(0 -8.829379696e-15 -1.107575696e-15)
(0 -8.098719507e-15 -1.070567852e-15)
(0 -7.397342632e-15 -1.023667572e-15)
(0 -6.730804762e-15 -9.696350472e-16)
(0 -6.102900716e-15 -9.109155733e-16)
(0 -5.515901373e-15 -8.496040146e-16)
(0 -4.970800709e-15 -7.874389172e-16)
(0 -4.467556227e-15 -7.258177809e-16)
(0 -4.005311646e-15 -6.658260503e-16)
(0 -3.582595327e-15 -6.082737748e-16)
(0 -3.197491449e-15 -5.53735339e-16)
(0 -2.847783521e-15 -5.02588995e-16)
(0 -2.531071528e-15 -4.550540464e-16)
(0 -2.244865043e-15 -4.112244239e-16)
(0 -1.986655163e-15 -3.710980504e-16)
(0 -1.75396831e-15 -3.34601859e-16)
(0 -1.544404841e-15 -3.016126328e-16)
(0 -1.355665212e-15 -2.719740179e-16)
(0 -1.185566121e-15 -2.455101557e-16)
(0 -1.03204874e-15 -2.220364126e-16)
(0 -8.9318081e-16 -2.01367678e-16)
(0 -7.671540457e-16 -1.833246691e-16)
(0 -6.52278052e-16 -1.677386422e-16)
(0 -5.469716722e-16 -1.544548697e-16)
(0 -4.49752525e-16 -1.433352195e-16)
(0 -3.592253685e-16 -1.342602055e-16)
(0 -2.740701373e-16 -1.271310549e-16)
(0 -1.930319068e-16 -1.218729261e-16)
(0 -1.149230736e-16 -1.1844221e-16)
(0 -3.822857804e-17 -1.168469584e-16)
(0 -0.05836474721 -0.005240574007)
(0 -0.05354617581 -0.01168385218)
(0 -0.04708185508 -0.01708368764)
(0 -0.0382536686 -0.02141298295)
(0 -0.02795774485 -0.02457483408)
(0 -0.017246515 -0.02636168426)
(0 -0.001758221686 -0.0244062044)
(0 6.134843057e-05 -0.000622523964)
(0 -7.861210691e-15 -3.865755841e-18)
(0 -1.5631969e-14 -3.347928879e-16)
(0 -1.540083711e-14 -6.544830568e-16)
(0 -1.505860594e-14 -9.510738319e-16)
(0 -1.459799318e-14 -1.215379845e-15)
(0 -1.403520788e-14 -1.440618171e-15)
(0 -1.338869662e-14 -1.622664905e-15)
(0 -1.267792992e-14 -1.760011147e-15)
(0 -1.192226044e-14 -1.853478907e-15)
(0 -1.113998622e-14 -1.905780761e-15)
(0 -1.034766194e-14 -1.921008063e-15)
(0 -9.559661961e-15 -1.904119272e-15)
(0 -8.787970185e-15 -1.8604797e-15)
(0 -8.042155771e-15 -1.795482679e-15)
(0 -7.329487529e-15 -1.714263723e-15)
(0 -6.655141352e-15 -1.621505609e-15)
(0 -6.022460986e-15 -1.521323654e-15)
(0 -5.433240462e-15 -1.417216177e-15)
(0 -4.888004888e-15 -1.312064083e-15)
(0 -4.38627389e-15 -1.208164571e-15)
(0 -3.92679826e-15 -1.107286166e-15)
(0 -3.507765244e-15 -1.010734935e-15)
(0 -3.126971363e-15 -9.194243483e-16)
(0 -2.781964009e-15 -8.339435559e-16)
(0 -2.470154448e-15 -7.54620778e-16)
(0 -2.188905584e-15 -6.815799383e-16)
(0 -1.935598114e-15 -6.14789765e-16)
(0 -1.707678578e-15 -5.541053051e-16)
(0 -1.502692604e-15 -4.993022703e-16)
(0 -1.31830625e-15 -4.501048993e-16)
(0 -1.152317955e-15 -4.06208149e-16)
(0 -1.002663219e-15 -3.672950553e-16)
(0 -8.674137486e-16 -3.330500748e-16)
(0 -7.447724878e-16 -3.031691499e-16)
(0 -6.330656419e-16 -2.773671605e-16)
(0 -5.307325921e-16 -2.553833382e-16)
(0 -4.363143947e-16 -2.369851371e-16)
(0 -3.48441467e-16 -2.219709779e-16)
(0 -2.658210639e-16 -2.101721532e-16)
(0 -1.87225226e-16 -2.014537734e-16)
(0 -1.114799433e-16 -1.957128263e-16)
(0 -3.708812381e-17 -1.928630723e-16)
(0 -0.06648791443 -0.007941089109)
(0 -0.0606037758 -0.01751853596)
(0 -0.05297916071 -0.02535737778)
(0 -0.04274650948 -0.03157598028)
(0 -0.03100003493 -0.03604616596)
(0 -0.01892682452 -0.03846831409)
(0 -0.001849599289 -0.03530446459)
(0 6.500044403e-05 -0.0008832102989)
(0 -8.063069338e-15 -5.525102604e-18)
(0 -1.602778101e-14 -4.853923309e-16)
(0 -1.577449034e-14 -9.481588338e-16)
(0 -1.539824295e-14 -1.376093027e-15)
(0 -1.489387321e-14 -1.755546524e-15)
(0 -1.428073772e-14 -2.076660639e-15)
(0 -1.358054773e-14 -2.333709746e-15)
(0 -1.281581724e-14 -2.524958759e-15)
(0 -1.200847793e-14 -2.652153349e-15)
(0 -1.117880683e-14 -2.719788601e-15)
(0 -1.034470015e-14 -2.734294461e-15)
(0 -9.521274366e-15 -2.703248174e-15)
(0 -8.720743103e-15 -2.634687465e-15)
(0 -7.95250353e-15 -2.536562885e-15)
(0 -7.223365562e-15 -2.416339305e-15)
(0 -6.537864694e-15 -2.280736893e-15)
(0 -5.898611285e-15 -2.135590609e-15)
(0 -5.306641802e-15 -1.985802719e-15)
(0 -4.761749102e-15 -1.835362851e-15)
(0 -4.262778309e-15 -1.687412922e-15)
(0 -3.80788201e-15 -1.544338367e-15)
(0 -3.39473351e-15 -1.407871443e-15)
(0 -3.02070007e-15 -1.279196439e-15)
(0 -2.682979951e-15 -1.159050032e-15)
(0 -2.378707911e-15 -1.04781273e-15)
(0 -2.10503403e-15 -9.455893517e-16)
(0 -1.85918053e-15 -8.52277917e-16)
(0 -1.638480815e-15 -7.676272394e-16)
(0 -1.440404435e-15 -6.912840944e-16)
(0 -1.262571091e-15 -6.228311197e-16)
(0 -1.102756277e-15 -5.61816724e-16)
(0 -9.588906663e-16 -5.07778269e-16)
(0 -8.290549046e-16 -4.602597104e-16)
(0 -7.114711314e-16 -4.188247619e-16)
(0 -6.044922403e-16 -3.830665112e-16)
(0 -5.065896488e-16 -3.526142753e-16)
(0 -4.163401646e-16 -3.27138349e-16)
(0 -3.324123846e-16 -3.063531516e-16)
(0 -2.535529328e-16 -2.900190994e-16)
(0 -1.785725799e-16 -2.779432306e-16)
(0 -1.063323724e-16 -2.699781699e-16)
(0 -3.537882398e-17 -2.660192867e-16)
(0 -0.0779337378 -0.01133228949)
(0 -0.0704514596 -0.02464784863)
(0 -0.06112691234 -0.03520351486)
(0 -0.0488517286 -0.04345985114)
(0 -0.03502415819 -0.04924762872)
(0 -0.02103485812 -0.05215435706)
(0 -0.001929321117 -0.04724991349)
(0 6.809700063e-05 -0.001157003616)
(0 -8.343446888e-15 -7.481896944e-18)
(0 -1.657702833e-14 -6.542799754e-16)
(0 -1.629153781e-14 -1.276653807e-15)
(0 -1.586599363e-14 -1.849572529e-15)
(0 -1.529856079e-14 -2.354030044e-15)
(0 -1.46133711e-14 -2.776745878e-15)
(0 -1.383699474e-14 -3.110534588e-15)
(0 -1.299637352e-14 -3.353943957e-15)
(0 -1.211709029e-14 -3.510373967e-15)
(0 -1.122212733e-14 -3.586916223e-15)
(0 -1.033112151e-14 -3.593126446e-15)
(0 -9.460054965e-15 -3.539887305e-15)
(0 -8.621284896e-15 -3.438456539e-15)
(0 -7.823807612e-15 -3.299740469e-15)
(0 -7.073661537e-15 -3.133792459e-15)
(0 -6.374392655e-15 -2.949510692e-15)
(0 -5.727526812e-15 -2.754497388e-15)
(0 -5.133012704e-15 -2.555038821e-15)
(0 -4.589615092e-15 -2.356168503e-15)
(0 -4.095249407e-15 -2.161781917e-15)
(0 -3.647256781e-15 -1.974778151e-15)
(0 -3.242623315e-15 -1.797210473e-15)
(0 -2.878149951e-15 -1.63043366e-15)
(0 -2.5505803e-15 -1.475240484e-15)
(0 -2.256693768e-15 -1.331983262e-15)
(0 -1.993370772e-15 -1.200678819e-15)
(0 -1.757636002e-15 -1.081096866e-15)
(0 -1.546684755e-15 -9.728328115e-16)
(0 -1.357896484e-15 -8.75366588e-16)
(0 -1.188838879e-15 -7.881093176e-16)
(0 -1.037265104e-15 -7.104396725e-16)
(0 -9.011062049e-16 -6.417316937e-16)
(0 -7.784602415e-16 -5.813756676e-16)
(0 -6.675792886e-16 -5.287934597e-16)
(0 -5.668551553e-16 -4.834495057e-16)
(0 -4.748044299e-16 -4.448584575e-16)
(0 -3.90053271e-16 -4.125903002e-16)
(0 -3.113222174e-16 -3.86273579e-16)
(0 -2.374111429e-16 -3.655972084e-16)
(0 -1.671842965e-16 -3.503111909e-16)
(0 -9.95559994e-17 -3.402265705e-16)
(0 -3.312924062e-17 -3.35215544e-16)
(0 -0.09325093247 -0.01573828551)
(0 -0.08347715284 -0.03364489107)
(0 -0.07176732103 -0.04728804699)
(0 -0.05663682539 -0.05777220452)
(0 -0.03993678426 -0.06483693747)
(0 -0.02337349672 -0.06790437714)
(0 -0.001957715379 -0.06036924601)
(0 6.824955689e-05 -0.001446014018)
(0 -8.71298336e-15 -9.481161051e-18)
(0 -1.730015098e-14 -8.491246825e-16)
(0 -1.69697829e-14 -1.654585228e-15)
(0 -1.647561919e-14 -2.391484622e-15)
(0 -1.582104656e-14 -3.034224747e-15)
(0 -1.503724227e-14 -3.56572952e-15)
(0 -1.415774581e-14 -3.977714411e-15)
(0 -1.321565662e-14 -4.269889914e-15)
(0 -1.22414502e-14 -4.448469834e-15)
(0 -1.126155931e-14 -4.524369018e-15)
(0 -1.029767123e-14 -4.511405658e-15)
(0 -9.366604459e-15 -4.424719524e-15)
(0 -8.480596267e-15 -4.279514859e-15)
(0 -7.64783945e-15 -4.090155417e-15)
(0 -6.873135786e-15 -3.869585477e-15)
(0 -6.158569623e-15 -3.629022212e-15)
(0 -5.504139413e-15 -3.377855275e-15)
(0 -4.908312918e-15 -3.123691925e-15)
(0 -4.368492199e-15 -2.872494947e-15)
(0 -3.881387956e-15 -2.628771843e-15)
(0 -3.443310566e-15 -2.395784839e-15)
(0 -3.05038902e-15 -2.175760931e-15)
(0 -2.698730081e-15 -1.970088912e-15)
(0 -2.384529552e-15 -1.779496106e-15)
(0 -2.104146245e-15 -1.604201679e-15)
(0 -1.854147634e-15 -1.444046079e-15)
(0 -1.631334522e-15 -1.298597889e-15)
(0 -1.432750537e-15 -1.167240276e-15)
(0 -1.255680942e-15 -1.049239655e-15)
(0 -1.097644175e-15 -9.437992632e-16)
(0 -9.563786531e-16 -8.501002091e-16)
(0 -8.298266614e-16 -7.673323303e-16)
(0 -7.161166705e-16 -6.947169032e-16)
(0 -6.135449695e-16 -6.315229494e-16)
(0 -5.20557238e-16 -5.770786019e-16)
(0 -4.357304434e-16 -5.307787272e-16)
(0 -3.577552862e-16 -4.920897712e-16)
(0 -2.854192928e-16 -4.605525934e-16)
(0 -2.175905446e-16 -4.357838861e-16)
(0 -1.53201942e-16 -4.174766596e-16)
(0 -9.123672557e-17 -4.054002554e-16)
(0 -3.03677975e-17 -3.994004831e-16)
(0 -0.1131373662 -0.02157847225)
(0 -0.100193423 -0.04524488767)
(0 -0.08522412154 -0.06246759264)
(0 -0.0661756617 -0.0754240012)
(0 -0.04554645591 -0.08361142051)
(0 -0.0255580468 -0.0861972204)
(0 -0.001883620741 -0.07455324859)
(0 6.132857822e-05 -0.001758906268)
(0 -9.186945697e-15 -1.120913408e-17)
(0 -1.822617972e-14 -1.080024957e-15)
(0 -1.783389774e-14 -2.101049595e-15)
(0 -1.724563315e-14 -3.027513569e-15)
(0 -1.647280569e-14 -3.82561103e-15)
(0 -1.555686077e-14 -4.474193249e-15)
(0 -1.454115513e-14 -4.964671269e-15)
(0 -1.346712894e-14 -5.299408087e-15)
(0 -1.237156939e-14 -5.48923204e-15)
(0 -1.128506316e-14 -5.550677856e-15)
(0 -1.023147202e-14 -5.503407423e-15)
(0 -9.228164166e-15 -5.368074575e-15)
(0 -8.28672079e-15 -5.164735153e-15)
(0 -7.41387823e-15 -4.911789608e-15)
(0 -6.612528331e-15 -4.625381068e-15)
(0 -5.882662453e-15 -4.319146435e-15)
(0 -5.222196525e-15 -4.004217926e-15)
(0 -4.627652376e-15 -3.689386068e-15)
(0 -4.09469501e-15 -3.381353887e-15)
(0 -3.618539298e-15 -3.085030995e-15)
(0 -3.19424587e-15 -2.803832776e-15)
(0 -2.816927389e-15 -2.539962969e-15)
(0 -2.481885126e-15 -2.294667656e-15)
(0 -2.184693067e-15 -2.068455412e-15)
(0 -1.92124374e-15 -1.861282799e-15)
(0 -1.687766982e-15 -1.672707029e-15)
(0 -1.480830199e-15 -1.502009094e-15)
(0 -1.297326521e-15 -1.348291241e-15)
(0 -1.134455471e-15 -1.21055278e-15)
(0 -9.896994332e-16 -1.087748003e-15)
(0 -8.607981712e-16 -9.788295881e-16)
(0 -7.45722899e-16 -8.827804503e-16)
(0 -6.426508605e-16 -7.986365412e-16)
(0 -5.499409873e-16 -7.255026673e-16)
(0 -4.661109331e-16 -6.625630316e-16)
(0 -3.898155992e-16 -6.090878651e-16)
(0 -3.198271372e-16 -5.644372373e-16)
(0 -2.550163323e-16 -5.280629e-16)
(0 -1.943352091e-16 -4.995088368e-16)
(0 -1.368006659e-16 -4.78411051e-16)
(0 -8.147982292e-17 -4.644970435e-16)
(0 -2.712946832e-17 -4.575853683e-16)
(0 -0.1384251727 -0.02936708659)
(0 -0.1212968199 -0.0603761183)
(0 -0.1019637602 -0.08186959938)
(0 -0.07745516162 -0.09768177853)
(0 -0.05119814649 -0.1067039474)
(0 -0.02661545563 -0.1075940681)
(0 -0.001694430895 -0.08933641602)
(0 3.999865838e-05 -0.002134346487)
(0 -9.786329705e-15 -1.202395128e-17)
(0 -1.939504396e-14 -1.360944128e-15)
(0 -1.891727151e-14 -2.642031383e-15)
(0 -1.820018062e-14 -3.791846023e-15)
(0 -1.726772624e-14 -4.76645001e-15)
(0 -1.617630251e-14 -5.540706652e-15)
(0 -1.498296065e-14 -6.107327203e-15)
(0 -1.374021739e-14 -6.473810761e-15)
(0 -1.249271997e-14 -6.658356887e-15)
(0 -1.127573469e-14 -6.685698106e-15)
(0 -1.011506795e-14 -6.58347471e-15)
(0 -9.027932189e-15 -6.379444592e-15)
(0 -8.024311299e-15 -6.099572981e-15)
(0 -7.108485365e-15 -5.766899454e-15)
(0 -6.280492613e-15 -5.401015421e-15)
(0 -5.53740648e-15 -5.017976398e-15)
(0 -4.874379046e-15 -4.63049453e-15)
(0 -4.285448879e-15 -4.24828968e-15)
(0 -3.764137126e-15 -3.878511198e-15)
(0 -3.303866845e-15 -3.526171732e-15)
(0 -2.898242541e-15 -3.194557299e-15)
(0 -2.541223899e-15 -2.885594417e-15)
(0 -2.227222524e-15 -2.600166312e-15)
(0 -1.951144695e-15 -2.338377312e-15)
(0 -1.708397862e-15 -2.09976869e-15)
(0 -1.49487393e-15 -1.883491275e-15)
(0 -1.306918734e-15 -1.688440974e-15)
(0 -1.141294223e-15 -1.51336328e-15)
(0 -9.951377042e-16 -1.356932474e-15)
(0 -8.659209834e-16 -1.217810477e-15)
(0 -7.514111e-16 -1.094689671e-15)
(0 -6.496336145e-16 -9.863232431e-16)
(0 -5.588388876e-16 -8.915459919e-16)
(0 -4.774714598e-16 -8.092879597e-16)
(0 -4.041424358e-16 -7.385827826e-16)
(0 -3.376046491e-16 -6.785722419e-16)
(0 -2.767303211e-16 -6.285081827e-16)
(0 -2.204908923e-16 -5.877526978e-16)
(0 -1.679386956e-16 -5.557772719e-16)
(0 -1.181901486e-16 -5.321614226e-16)
(0 -7.041104281e-17 -5.165912547e-16)
(0 -2.345612228e-17 -5.088582343e-16)
(0 -0.1700661359 -0.03964910877)
(0 -0.1477945938 -0.08010643435)
(0 -0.1223490358 -0.1070207996)
(0 -0.08928968916 -0.1265940106)
(0 -0.05422930181 -0.1358675974)
(0 -0.02403464776 -0.1322458485)
(0 -0.001448579215 -0.1032602566)
(0 -5.558053743e-06 -0.002679336336)
(0 -1.054097769e-14 -1.171256539e-17)
(0 -2.086266106e-14 -1.712444068e-15)
(0 -2.026479964e-14 -3.314219167e-15)
(0 -1.937005178e-14 -4.731295521e-15)
(0 -1.822166632e-14 -5.90754743e-15)
(0 -1.689773796e-14 -6.814782488e-15)
(0 -1.547425924e-14 -7.450066847e-15)
(0 -1.401815863e-14 -7.830118369e-15)
(0 -1.258345674e-14 -7.984672226e-15)
(0 -1.121018098e-14 -7.950282483e-15)
(0 -9.925218505e-15 -7.765357772e-15)
(0 -8.744262436e-15 -7.466670823e-15)
(0 -7.674175652e-15 -7.087230065e-15)
(0 -6.71532067e-15 -6.655237602e-15)
(0 -5.863605275e-15 -6.19382161e-15)
(0 -5.112141562e-15 -5.721264312e-15)
(0 -4.452509807e-15 -5.251507128e-15)
(0 -3.875669044e-15 -4.79477778e-15)
(0 -3.372577062e-15 -4.358238312e-15)
(0 -2.934585399e-15 -3.946594428e-15)
(0 -2.553668555e-15 -3.56263569e-15)
(0 -2.222536403e-15 -3.207695197e-15)
(0 -1.934668021e-15 -2.882028899e-15)
(0 -1.684295444e-15 -2.585121014e-15)
(0 -1.466357703e-15 -2.315924877e-15)
(0 -1.276439266e-15 -2.073049397e-15)
(0 -1.110702204e-15 -1.854900839e-15)
(0 -9.658180217e-16 -1.659788736e-15)
(0 -8.389026676e-16 -1.48600345e-15)
(0 -7.2745663e-16 -1.331871699e-15)
(0 -6.293109376e-16 -1.195795212e-15)
(0 -5.425792201e-16 -1.076276628e-15)
(0 -4.656155771e-16 -9.719359491e-16)
(0 -3.969777779e-16 -8.815200983e-16)
(0 -3.353952153e-16 -8.039075862e-16)
(0 -2.797409993e-16 -7.38109822e-16)
(0 -2.290075932e-16 -6.832702392e-16)
(0 -1.822854215e-16 -6.386621246e-16)
(0 -1.387439339e-16 -6.036858212e-16)
(0 -9.761464868e-17 -5.778658056e-16)
(0 -5.817663469e-17 -5.608480128e-16)
(0 -1.939644797e-17 -5.523976676e-16)
(0 -0.2090630587 -0.05285636904)
(0 -0.1805903851 -0.1057995498)
(0 -0.1453992533 -0.1409389877)
(0 -0.09853059531 -0.1660826291)
(0 -0.05107872468 -0.1726235741)
(0 -0.01575656901 -0.1573623104)
(0 -0.001744904373 -0.1122083254)
(0 -7.841043175e-05 -0.003667992875)
(0 -1.149203186e-14 -1.561729197e-17)
(0 -2.270658026e-14 -2.166648076e-15)
(0 -2.193612296e-14 -4.171003404e-15)
(0 -2.079350889e-14 -5.911430387e-15)
(0 -1.93512132e-14 -7.317535863e-15)
(0 -1.771882192e-14 -8.360711106e-15)
(0 -1.599829653e-14 -9.047974474e-15)
(0 -1.427482277e-14 -9.411889694e-15)
(0 -1.261288408e-14 -9.499921981e-15)
(0 -1.105642024e-14 -9.365410065e-15)
(0 -9.631456286e-15 -9.061021944e-15)
(0 -8.349804482e-15 -8.634674949e-15)
(0 -7.212878079e-15 -8.127464296e-15)
(0 -6.215076909e-15 -7.573023599e-15)
(0 -5.346519323e-15 -6.997790917e-15)
(0 -4.595091999e-15 -6.421770808e-15)
(0 -3.947892514e-15 -5.859507365e-15)
(0 -3.392180062e-15 -5.321088442e-15)
(0 -2.915953774e-15 -4.813079596e-15)
(0 -2.508264224e-15 -4.339339446e-15)
(0 -2.159343309e-15 -3.901701418e-15)
(0 -1.860617109e-15 -3.500525843e-15)
(0 -1.604648341e-15 -3.13513594e-15)
(0 -1.385040673e-15 -2.804154905e-15)
(0 -1.196326245e-15 -2.505761645e-15)
(0 -1.033849891e-15 -2.237881305e-15)
(0 -8.936580734e-16 -1.998324574e-15)
(0 -7.723968337e-16 -1.784887426e-15)
(0 -6.672206675e-16 -1.595420748e-15)
(0 -5.757127457e-16 -1.427877389e-15)
(0 -4.958160286e-16 -1.280342498e-15)
(0 -4.257743518e-16 -1.151051708e-15)
(0 -3.64082358e-16 -1.038400655e-15)
(0 -3.09443097e-16 -9.409484668e-16)
(0 -2.607321595e-16 -8.574172128e-16)
(0 -2.169673021e-16 -7.866888e-16)
(0 -1.772826237e-16 -7.278004175e-16)
(0 -1.409064743e-16 -6.799393417e-16)
(0 -1.071423766e-16 -6.42437694e-16)
(0 -7.535234025e-17 -6.14767585e-16)
(0 -4.494290488e-17 -5.96536948e-16)
(0 -1.500577713e-17 -5.874862752e-16)
(0 -0.2557615287 -0.06946206838)
(0 -0.2206914256 -0.1409810122)
(0 -0.1749635459 -0.1901857098)
(0 -0.115471457 -0.222471621)
(0 -0.05545741817 -0.2194883763)
(0 -0.01200054367 -0.1811069589)
(0 -0.006123223108 -0.1136707326)
(0 -0.0001878824492 -0.006308415766)
(0 -1.269404799e-14 -3.600699991e-17)
(0 -2.50327252e-14 -2.773606157e-15)
(0 -2.400958195e-14 -5.291554914e-15)
(0 -2.251658424e-14 -7.425678698e-15)
(0 -2.067094704e-14 -9.090277007e-15)
(0 -1.862817657e-14 -1.026242427e-14)
(0 -1.652543783e-14 -1.096915596e-14)
(0 -1.447010613e-14 -1.126951468e-14)
(0 -1.253697711e-14 -1.123771932e-14)
(0 -1.077128094e-14 -1.09504376e-14)
(0 -9.19448339e-15 -1.047867909e-14)
(0 -7.810704789e-15 -9.883580054e-15)
(0 -6.612524301e-15 -9.214964585e-15)
(0 -5.58564729e-15 -8.51163381e-15)
(0 -4.712352484e-15 -7.802575041e-15)
(0 -3.973858011e-15 -7.108543032e-15)
(0 -3.351827441e-15 -6.443680827e-15)
(0 -2.829241275e-15 -5.817002712e-15)
(0 -2.390828066e-15 -5.233662473e-15)
(0 -2.023207221e-15 -4.695989884e-15)
(0 -1.714854952e-15 -4.204310066e-15)
(0 -1.455970924e-15 -3.757574511e-15)
(0 -1.238297083e-15 -3.353836535e-15)
(0 -1.054921149e-15 -2.990602497e-15)
(0 -9.000841032e-16 -2.665086276e-15)
(0 -7.690021958e-16 -2.374389893e-15)
(0 -6.577083251e-16 -2.115628672e-15)
(0 -5.629141952e-16 -1.886015356e-15)
(0 -4.818926313e-16 -1.682914288e-15)
(0 -4.123783804e-16 -1.503874084e-15)
(0 -3.524852562e-16 -1.346645108e-15)
(0 -3.006373768e-16 -1.209186458e-15)
(0 -2.55512336e-16 -1.089665905e-15)
(0 -2.159943359e-16 -9.864553244e-16)
(0 -1.811355485e-16 -8.981234427e-16)
(0 -1.501242041e-16 -8.234272158e-16)
(0 -1.222581348e-16 -7.613027813e-16)
(0 -9.692269801e-17 -7.108566441e-16)
(0 -7.35721772e-17 -6.713575603e-16)
(0 -5.171390268e-17 -6.422294383e-16)
(0 -3.089532486e-17 -6.230454747e-16)
(0 -1.034577511e-17 -6.135236638e-16)
(0 -0.3104961284 -0.08869979437)
(0 -0.2831344404 -0.1835201734)
(0 -0.250627113 -0.2480823186)
(0 -0.1999910309 -0.2903574582)
(0 -0.1241733486 -0.2818172262)
(0 -0.04662861882 -0.2161300726)
(0 -0.02020776796 -0.1192180625)
(0 -0.0003703398693 -0.01405849008)
(0 -1.422999617e-14 -1.079246187e-16)
(0 -2.799208697e-14 -3.615750968e-15)
(0 -2.65881955e-14 -6.795686763e-15)
(0 -2.459223098e-14 -9.409139927e-15)
(0 -2.218795878e-14 -1.135522022e-14)
(0 -1.959770088e-14 -1.262939343e-14)
(0 -1.700538693e-14 -1.329663468e-14)
(0 -1.454338613e-14 -1.345928148e-14)
(0 -1.2293807e-14 -1.323103122e-14)
(0 -1.029738001e-14 -1.27199912e-14)
(0 -8.564598738e-15 -1.201973326e-14)
(0 -7.086089974e-15 -1.120605666e-14)
(0 -5.840931835e-15 -1.033722925e-14)
(0 -4.802687365e-15 -9.456013212e-15)
(0 -3.943428545e-15 -8.592365534e-15)
(0 -3.236197784e-15 -7.766171192e-15)
(0 -2.656352194e-15 -6.989689621e-15)
(0 -2.182161708e-15 -6.269593365e-15)
(0 -1.794940946e-15 -5.608587877e-15)
(0 -1.478911817e-15 -5.006654586e-15)
(0 -1.220927936e-15 -4.461979117e-15)
(0 -1.010143578e-15 -3.971628519e-15)
(0 -8.37676327e-16 -3.532034847e-15)
(0 -6.962904137e-16 -3.139333029e-15)
(0 -5.801136412e-16 -2.789591203e-15)
(0 -4.843922874e-16 -2.478963037e-15)
(0 -4.052835361e-16 -2.203784315e-15)
(0 -3.396824494e-16 -1.960630326e-15)
(0 -2.850793952e-16 -1.746346167e-15)
(0 -2.394435656e-16 -1.558058717e-15)
(0 -2.011284026e-16 -1.393176561e-15)
(0 -1.687951486e-16 -1.249382302e-15)
(0 -1.413512247e-16 -1.124620409e-15)
(0 -1.17900635e-16 -1.017082753e-15)
(0 -9.770405101e-17 -9.25193331e-16)
(0 -8.014664068e-17 -8.475931948e-16)
(0 -6.4712052e-17 -7.831262419e-16)
(0 -5.096125324e-17 -7.308263207e-16)
(0 -3.851517073e-17 -6.899059194e-16)
(0 -2.704025464e-17 -6.597466085e-16)
(0 -1.623713042e-17 -6.398913376e-16)
(0 -5.483966294e-18 -6.300386346e-16)
(0 -0.3793394484 -0.09685818051)
(0 -0.4115146165 -0.1926456389)
(0 -0.4450567358 -0.2652393384)
(0 -0.4322015828 -0.3419200953)
(0 -0.3294266342 -0.367226928)
(0 -0.1682100513 -0.2896635418)
(0 -0.04555450284 -0.144768586)
(0 -0.0003434432386 -0.03090953436)
(0 -1.621530196e-14 -4.127301583e-16)
(0 -3.17922253e-14 -4.833645135e-15)
(0 -2.980297091e-14 -8.865932815e-15)
(0 -2.707611769e-14 -1.205949463e-14)
(0 -2.389120054e-14 -1.429172406e-14)
(0 -2.056959103e-14 -1.560310811e-14)
(0 -1.735532588e-14 -1.612865102e-14)
(0 -1.440450267e-14 -1.603997306e-14)
(0 -1.179768683e-14 -1.550720531e-14)
(0 -9.559982979e-15 -1.467885136e-14)
(0 -7.68054885e-15 -1.367429357e-14)
(0 -6.12820078e-15 -1.258376152e-14)
(0 -4.862480852e-15 -1.147194652e-14)
(0 -3.840783577e-15 -1.038287463e-14)
(0 -3.022510464e-15 -9.344740872e-15)
(0 -2.371182098e-15 -8.374114602e-15)
(0 -1.855249613e-15 -7.479333046e-15)
(0 -1.448139531e-15 -6.663107e-15)
(0 -1.127889286e-15 -5.924450212e-15)
(0 -8.765984609e-16 -5.260067215e-15)
(0 -6.798288856e-16 -4.66532664e-15)
(0 -5.260266544e-16 -4.134927262e-15)
(0 -4.060015933e-16 -3.663341819e-15)
(0 -3.124775046e-16 -3.245103326e-15)
(0 -2.397141112e-16 -2.874981748e-15)
(0 -1.831953078e-16 -2.548085731e-15)
(0 -1.393756138e-16 -2.25991407e-15)
(0 -1.054760471e-16 -2.006374252e-15)
(0 -7.932102305e-17 -1.783780124e-15)
(0 -5.920877457e-17 -1.588836886e-15)
(0 -4.380884055e-17 -1.418619005e-15)
(0 -3.208122495e-17 -1.270544741e-15)
(0 -2.321278676e-17 -1.142349714e-15)
(0 -1.656725799e-17 -1.032061058e-15)
(0 -1.164599067e-17 -9.379731155e-16)
(0 -8.057114884e-18 -8.586252351e-16)
(0 -5.491260752e-18 -7.927819701e-16)
(0 -3.702375485e-18 -7.394158231e-16)
(0 -2.492464945e-18 -6.976925702e-16)
(0 -1.699320915e-18 -6.669591484e-16)
(0 -1.187351002e-18 -6.467340605e-16)
(0 -4.930721525e-19 -6.36700241e-16)
(0 -0.4645848123 -0.05718976571)
(0 -0.6133750116 -0.1062329369)
(0 -0.7414707696 -0.2049709813)
(0 -0.7813118059 -0.3809158991)
(0 -0.6709295114 -0.512884142)
(0 -0.4210329491 -0.4646975149)
(0 -0.1253508678 -0.2362359152)
(0 0.0009575942719 -0.06671744789)
(0 -1.867179322e-14 -8.107103516e-16)
(0 -3.661215531e-14 -6.556615956e-15)
(0 -3.3814045e-14 -1.177383614e-14)
(0 -3.001802223e-14 -1.567036922e-14)
(0 -2.573157226e-14 -1.814860172e-14)
(0 -2.143462783e-14 -1.936248084e-14)
(0 -1.744225188e-14 -1.957489523e-14)
(0 -1.392194041e-14 -1.9064862e-14)
(0 -1.093268531e-14 -1.807911069e-14)
(0 -8.464468273e-15 -1.681406076e-14)
(0 -6.469508892e-15 -1.541495556e-14)
(0 -4.883742926e-15 -1.398285249e-14)
(0 -3.640044947e-15 -1.258399976e-14)
(0 -2.67548172e-15 -1.125885604e-14)
(0 -1.934668518e-15 -1.002964993e-14)
(0 -1.370789958e-15 -8.906241508e-15)
(0 -9.453445925e-16 -7.890439554e-15)
(0 -6.272788735e-16 -6.979063049e-15)
(0 -3.91901161e-16 -6.166045573e-15)
(0 -2.19788245e-16 -5.443840922e-15)
(0 -9.578798324e-17 -4.804334255e-15)
(0 -8.158758033e-18 -4.239411931e-15)
(0 5.214760874e-17 -3.741300827e-15)
(0 9.206965783e-17 -3.302755187e-15)
(0 1.169039533e-16 -2.917144957e-15)
(0 1.306753909e-16 -2.578482206e-15)
(0 1.36427943e-16 -2.281410128e-15)
(0 1.364514958e-16 -2.021170714e-15)
(0 1.324579706e-16 -1.793561528e-15)
(0 1.257175535e-16 -1.594888163e-15)
(0 1.171637428e-16 -1.421916429e-15)
(0 1.074741429e-16 -1.271826668e-15)
(0 9.713245857e-17 -1.142171494e-15)
(0 8.647596332e-17 -1.030837606e-15)
(0 7.573177167e-17 -9.360118927e-16)
(0 6.504450473e-17 -8.561517995e-16)
(0 5.449735992e-17 -7.899597919e-16)
(0 4.412814662e-17 -7.363617022e-16)
(0 3.394150397e-17 -6.944887072e-16)
(0 2.391825513e-17 -6.636627061e-16)
(0 1.402177702e-17 -6.433848888e-16)
(0 4.549853171e-18 -6.333273205e-16)
(0 -0.5217140207 0.05553883226)
(0 -0.7604642011 0.06590249276)
(0 -0.9429487746 -0.1064697309)
(0 -1.041115658 -0.4312171169)
(0 -0.9974601837 -0.73638003)
(0 -0.7703186642 -0.8178750192)
(0 -0.3585290803 -0.5588328872)
(0 0.002291823054 -0.1660283471)
(0 -2.196141768e-14 -1.111749855e-15)
(0 -4.313486534e-14 -9.07107009e-15)
(0 -3.891672418e-14 -1.600027349e-14)
(0 -3.345088327e-14 -2.069828871e-14)
(0 -2.758331216e-14 -2.3269288e-14)
(0 -2.199588454e-14 -2.412323666e-14)
(0 -1.705770704e-14 -2.374374727e-14)
(0 -1.290871814e-14 -2.256571953e-14)
(0 -9.546885586e-15 -2.093056979e-14)
(0 -6.895827844e-15 -1.90835458e-14)
(0 -4.849340583e-15 -1.718878912e-14)
(0 -3.297244986e-15 -1.534882188e-14)
(0 -2.138484397e-15 -1.362243508e-14)
(0 -1.286433743e-15 -1.203896166e-14)
(0 -6.698959372e-16 -1.06088016e-14)
(0 -2.319717224e-16 -9.33078698e-15)
(0 7.192884585e-17 -8.197135146e-15)
(0 2.762544491e-16 -7.196667591e-15)
(0 4.0733284e-16 -6.316831089e-15)
(0 4.851128579e-16 -5.544916784e-15)
(0 5.246001053e-16 -4.868755972e-15)
(0 5.370067726e-16 -4.277082899e-15)
(0 5.306551509e-16 -3.759691451e-15)
(0 5.116783663e-16 -3.307468588e-15)
(0 4.845588699e-16 -2.912357691e-15)
(0 4.525395206e-16 -2.567285178e-15)
(0 4.17935878e-16 -2.266070909e-15)
(0 3.82372553e-16 -2.003334574e-15)
(0 3.469615287e-16 -1.774404976e-15)
(0 3.124363245e-16 -1.5752359e-15)
(0 2.792526535e-16 -1.402330185e-15)
(0 2.476637102e-16 -1.252672505e-15)
(0 2.177762761e-16 -1.123670652e-15)
(0 1.895923433e-16 -1.01310479e-15)
(0 1.630398155e-16 -9.190839889e-16)
(0 1.37994986e-16 -8.40009324e-16)
(0 1.142988365e-16 -7.745428305e-16)
(0 9.176870922e-17 -7.215816932e-16)
(0 7.020653122e-17 -6.802371126e-16)
(0 4.940449744e-17 -6.498173829e-16)
(0 2.914803459e-17 -6.298147982e-16)
(0 9.564496221e-18 -6.198960889e-16)
(0 -0.4203197133 0.1880514278)
(0 -0.6278166355 0.2440360298)
(0 -0.8009387189 0.01753450332)
(0 -0.9352247704 -0.4052588007)
(0 -1.020715598 -0.8746042067)
(0 -1.000715358 -1.200818632)
(0 -0.6707272643 -1.086917047)
(0 -0.004500155842 -0.4077256987)
(0 -2.679513322e-14 -2.575735087e-15)
(0 -5.240774666e-14 -1.33103144e-14)
(0 -4.544126362e-14 -2.245599794e-14)
(0 -3.728703674e-14 -2.785169945e-14)
(0 -2.91565202e-14 -3.010665448e-14)
(0 -2.19090871e-14 -3.011767126e-14)
(0 -1.588473475e-14 -2.871160275e-14)
(0 -1.110876293e-14 -2.652417823e-14)
(0 -7.450511583e-15 -2.399430758e-14)
(0 -4.722687607e-15 -2.140107098e-14)
(0 -2.734784973e-15 -1.890805153e-14)
(0 -1.317388885e-15 -1.660135795e-14)
(0 -3.301847226e-16 -1.451805162e-14)
(0 3.381517573e-16 -1.266581177e-14)
(0 7.735061604e-16 -1.103584098e-14)
(0 1.0408765e-15 -9.610986738e-15)
(0 1.188774797e-15 -8.370653446e-15)
(0 1.253025183e-15 -7.293641984e-15)
(0 1.259849646e-15 -6.359691841e-15)
(0 1.228286873e-15 -5.550234777e-15)
(0 1.172045902e-15 -4.848684791e-15)
(0 1.100905763e-15 -4.240466921e-15)
(0 1.02176192e-15 -3.71290835e-15)
(0 9.394034173e-16 -3.255065254e-15)
(0 8.570873639e-16 -2.857527721e-15)
(0 7.769621726e-16 -2.512226052e-15)
(0 7.00378547e-16 -2.21225036e-15)
(0 6.281174289e-16 -1.951688717e-15)
(0 5.605566443e-16 -1.725485306e-15)
(0 4.977923447e-16 -1.529318015e-15)
(0 4.397271376e-16 -1.359493937e-15)
(0 3.861336754e-16 -1.2128608e-15)
(0 3.367001739e-16 -1.086732323e-15)
(0 2.910626269e-16 -9.788255984e-16)
(0 2.488272376e-16 -8.872087891e-16)