/*--------------------------------*- C++ -*----------------------------------*\
  =========                 |
  \\      /  F ield         | OpenFOAM: The Open Source CFD Toolbox
   \\    /   O peration     | Website:  https://openfoam.org
    \\  /    A nd           | Version:  6
     \\/     M anipulation  |
\*---------------------------------------------------------------------------*/
FoamFile
{
    version     2.0;
    format      ascii;
    class       volScalarField;
    location    "0.03";
    object      ViscousDissipation;
}
// * * * * * * * * * * * * * * * * * * * * * * * * * * * * * * * * * * * * * //

dimensions      [1 -1 -3 0 0 0 0];

internalField   nonuniform List<scalar> 
2500
(
0.0001943407214
0.0008918949152
0.001753873966
0.002777011994
0.003546119009
0.004864750364
0.003140563949
7.24232646e-05
3.303724392e-05
1.481340056e-25
1.524787848e-27
3.014704277e-27
4.883001142e-27
6.851984687e-27
8.70887984e-27
1.028047298e-26
1.145041919e-26
1.216375693e-26
1.242098666e-26
1.226549377e-26
1.176830938e-26
1.10134503e-26
1.008589873e-26
9.063112054e-27
8.010052109e-27
6.977173339e-27
6.000576733e-27
5.103530804e-27
4.298685451e-27
3.590480151e-27
2.977422292e-27
2.454057023e-27
2.012557231e-27
1.643932571e-27
1.338896743e-27
1.088450445e-27
8.84241434e-28
7.187587219e-28
5.854095433e-28
4.785180816e-28
3.932757112e-28
3.256644751e-28
2.723689977e-28
2.306870232e-28
1.984451651e-28
1.739242179e-28
1.557980301e-28
1.430941185e-28
1.352068222e-28
1.402345365e-28
0.0005232171996
0.001446042609
0.002277208319
0.003273771119
0.004002622818
0.005336356496
0.00388579851
0.0005383518936
0.0002026928263
1.510849006e-25
2.259206487e-27
3.740306698e-27
5.594717289e-27
7.539518669e-27
9.360628036e-27
1.088527835e-26
1.199916435e-26
1.265042996e-26
1.284308932e-26
1.262385733e-26
1.206649765e-26
1.125696034e-26
1.028134038e-26
9.21749001e-27
8.130213453e-27
7.069434513e-27
6.070512121e-27
5.155889339e-27
4.337397871e-27
3.618722981e-27
2.997711508e-27
2.46835196e-27
2.022362137e-27
1.650388623e-27
1.34286122e-27
1.090562323e-27
8.849741641e-28
7.184617156e-28
5.843401704e-28
4.768659642e-28
3.911809209e-28
3.232309894e-28
2.696744938e-28
2.277897589e-28
1.953881959e-28
1.707359956e-28
1.52484416e-28
1.396003316e-28
1.316416048e-28
2.044368838e-28
0.00124089054
0.002650612889
0.003387785752
0.004315253649
0.004932664907
0.006254618439
0.005456889669
0.001540455906
0.0005376171454
1.571846398e-25
3.826971012e-27
5.284531427e-27
7.102929109e-27
8.9895032e-27
1.072818226e-26
1.214779144e-26
1.313876572e-26
1.365599166e-26
1.371086353e-26
1.335692305e-26
1.267340883e-26
1.175003296e-26
1.067494405e-26
9.526584728e-27
8.369246304e-27
7.251613078e-27
6.207409546e-27
5.257307341e-27
4.411408911e-27
3.671821829e-27
3.035021545e-27
2.493847604e-27
2.039082807e-27
1.660630635e-27
1.34834171e-27
1.092554326e-27
8.844148414e-28
7.16037151e-28
5.805506033e-28
4.72075213e-28
3.856533498e-28
3.171588475e-28
2.631979143e-28
2.210112069e-28
1.883827296e-28
1.635585368e-28
1.451762733e-28
1.322049075e-28
1.241931366e-28
3.290025467e-28
0.002531573719
0.004792293193
0.005318509076
0.006105333479
0.006506343291
0.007768253027
0.008090350788
0.003206626666
0.001073282738
1.669003917e-25
6.447702674e-27
7.852598378e-27
9.594759945e-27
1.136761649e-26
1.29538919e-26
1.418669442e-26
1.496529066e-26
1.52560106e-26
1.5082152e-26
1.450784193e-26
1.362047535e-26
1.25150744e-26
1.128238258e-26
1.000119222e-26
8.734510409e-27
7.52870949e-27
6.414689147e-27
5.410171354e-27
4.522444625e-27
3.751090144e-27
3.090413649e-27
2.531454026e-27
2.063539992e-27
1.675426733e-27
1.356074724e-27
1.095142878e-27
8.832658195e-28
7.121762869e-28
5.747224212e-28
4.648184527e-28
3.773571972e-28
3.081044371e-28
2.535887105e-28
2.109951265e-28
1.78068292e-28
1.530270363e-28
1.344921647e-28
1.214274074e-28
1.133685649e-28
5.063603248e-28
0.004689659447
0.008339012731
0.008443747489
0.008976276171
0.008984338694
0.01004797897
0.01211209774
0.005730569172
0.001835269074
1.81004206e-25
1.050638639e-26
1.180252693e-26
1.339367012e-26
1.495718377e-26
1.627840481e-26
1.7200287e-26
1.763740482e-26
1.757390921e-26
1.705043356e-26
1.614567111e-26
1.495755889e-26
1.358735692e-26
1.212817482e-26
1.065812616e-26
9.237441212e-27
7.908496058e-27
6.697685147e-27
5.618227852e-27
4.673238453e-27
3.858626997e-27
3.165595879e-27
2.582640803e-27
2.097057937e-27
1.696011193e-27
1.367236523e-27
1.099464129e-27
8.826329114e-28
7.079598696e-28
5.679142519e-28
4.561340646e-28
3.673120765e-28
2.970700263e-28
2.418332832e-28
1.987134822e-28
1.654033312e-28
1.400855829e-28
1.213568225e-28
1.08165387e-28
1.000177302e-28
7.261338337e-28
0.008209281579
0.0140941847
0.01340460133
0.01349776749
0.01278267619
0.0133108942
0.01793793014
0.009342656652
0.002860669861
2.007216068e-25
1.66413277e-26
1.772059028e-26
1.902162222e-26
2.020795643e-26
2.107704137e-26
2.149215517e-26
2.139336434e-26
2.079131299e-26
1.975034884e-26
1.836757274e-26
1.675297201e-26
1.501369707e-26
1.324359575e-26
1.151773879e-26
9.890920636e-27
8.398881807e-27
7.061087686e-27
5.884146731e-27
4.865238034e-27
3.995175451e-27
3.260933588e-27
2.647595844e-27
2.139765412e-27
1.722520183e-27
1.382005369e-27
1.105754113e-27
8.828146485e-28
7.037476622e-28
5.605427815e-28
4.464900112e-28
3.560311744e-28
2.846080327e-28
2.285175197e-28
1.847800791e-28
1.510240638e-28
1.253871936e-28
1.064348963e-28
9.309412154e-29
8.483482834e-29
9.752223125e-28
0.01387001077
0.02340232984
0.02130745897
0.0206718472
0.01863997481
0.01791267292
0.02601372001
0.01423660132
0.004226029717
2.279409359e-25
2.590336615e-26
2.655596582e-26
2.730829304e-26
2.782094392e-26
2.792298401e-26
2.751642923e-26
2.658231871e-26
2.516909603e-26
2.337159558e-26
2.130796791e-26
1.909963624e-26
1.685680783e-26
1.466998789e-26
1.260665497e-26
1.071169607e-26
9.010152839e-27
7.511066877e-27
6.211551083e-27
5.100543139e-27
4.161963277e-27
3.377186054e-27
2.726852497e-27
2.192110367e-27
1.755393709e-27
1.400852828e-27
1.114533373e-27
8.843856334e-28
7.001669219e-28
5.532834276e-28
4.366041818e-28
3.442689652e-28
2.715039e-28
2.144526612e-28
1.700272472e-28
1.357796426e-28
1.097941043e-28
9.059892241e-29
7.709557394e-29
6.871206219e-29
1.238660972e-27
0.02284138127
0.03849177767
0.03406347914
0.03240283775
0.02806874691
0.0243354585
0.03657394109
0.02043190707
0.006215116644
2.656300057e-25
4.003846192e-26
3.985407087e-26
3.957512825e-26
3.888664872e-26
3.768620321e-26
3.594530283e-26
3.370827112e-26
3.107464416e-26
2.817496022e-26
2.514738143e-26
2.211955259e-26
1.919724551e-26
1.64593404e-26
1.395766905e-26
1.171997927e-26
9.754474604e-27
8.05477481e-27
6.604558436e-27
5.381497063e-27
4.360342608e-27
3.515187829e-27
2.821005238e-27
2.254603423e-27
1.795141616e-27
1.42432824e-27
1.126406844e-27
8.88009523e-28
6.979367052e-28
5.469045538e-28
4.272873536e-28
3.328719241e-28
2.586336893e-28
2.00538975e-28
1.553748068e-28
1.206054733e-28
9.425402032e-29
7.480635822e-29
6.11351259e-29
5.262123293e-29
1.500495341e-27
0.03672814184
0.0629443391
0.05584201488
0.05390853913
0.04409449317
0.0318497336
0.04863512242
0.02730546881
0.00979505099
3.18494697e-25
6.200385896e-26
6.016840985e-26
5.795021193e-26
5.51137002e-26
5.169119363e-26
4.777260671e-26
4.349486974e-26
3.902042941e-26
3.451408306e-26
3.012396638e-26
2.596940664e-26
2.213578747e-26
1.867503019e-26
1.560973771e-26
1.293915617e-26
1.064554221e-26
8.700029748e-27
7.067527285e-27
5.710494801e-27
4.591648379e-27
3.675744061e-27
2.930630112e-27
2.327754285e-27
1.842289427e-27
1.453009514e-27
1.142016723e-27
8.943922023e-28
6.97820336e-28
5.422187101e-28
4.19392993e-28
3.227268691e-28
2.469110443e-28
1.877114671e-28
1.417746308e-28
1.064666429e-28
7.974231085e-29
6.004051946e-29
4.620210798e-29
3.755615964e-29
1.744716697e-27
0.05748949145
0.1052963576
0.1018287034
0.1007541615
0.07104894527
0.03825367377
0.05880914228
0.03233508623
0.01838612452
3.940860072e-25
9.688917632e-26
9.179250713e-26
8.591329657e-26
7.921000753e-26
7.196870599e-26
6.447146149e-26
5.697917393e-26
4.97168691e-26
4.286350356e-26
3.654728196e-26
3.084660192e-26
2.579554094e-26
2.139212101e-26
1.760756888e-26
1.439519211e-26
1.169802443e-26
9.454871224e-27
7.604728453e-27
6.089750947e-27
4.857037701e-27
3.85951897e-27
3.056204885e-27
2.412011109e-27
1.897328459e-27
1.487458538e-27
1.161999806e-27
9.04239079e-28
7.0058158e-28
5.400371774e-28
4.137699972e-28
3.147119188e-28
2.372364848e-28
1.768876672e-28
1.301570742e-28
9.430312498e-29
6.720612726e-29
4.725386302e-29
3.325278022e-29
2.447598844e-29
1.956221617e-27
0.08866773205
0.1901151502
0.2031984899
0.1951280561
0.1183590587
0.04467940456
0.06377258862
0.03385620602
0.05432429372
5.05175655e-25
1.537083278e-25
1.421136932e-25
1.292630866e-25
1.15527265e-25
1.016592336e-25
8.823294945e-26
7.564518804e-26
6.414266338e-26
5.385308041e-26
4.481345446e-26
3.699476863e-26
3.032303158e-26
2.46967062e-26
2.000048001e-26
1.611553345e-26
1.292668152e-26
1.032691186e-26
8.219892387e-27
6.520992012e-27
5.157282275e-27
4.066893754e-27
3.19800794e-27
2.507683901e-27
1.960653127e-27
1.528165802e-27
1.186935478e-27
9.182041825e-28
7.069336326e-28
5.411182408e-28
4.112100095e-28
3.096428004e-28
2.304427562e-28
1.689121081e-28
1.213746827e-28
8.497281965e-29
5.750689566e-29
3.731010509e-29
2.315230781e-29
1.424719812e-29
2.121743177e-27
0.1285789109
0.3422075734
0.4236669514
0.4649127402
0.331073811
0.114878954
0.0837255991
0.041730681
0.2693254233
6.729973063e-25
2.488071842e-25
2.241905685e-25
1.978791946e-25
1.711662045e-25
1.456609475e-25
1.22323759e-25
1.016095039e-25
8.363444629e-26
6.830717769e-26
5.541957005e-26
4.470701013e-26
3.588710407e-26
2.868358872e-26
2.284013017e-26
1.812729699e-26
1.434505227e-26
1.132243586e-26
8.9156092e-27
7.005062446e-27
5.492508529e-27
4.297790932e-27
3.355993867e-27
2.614850441e-27
2.032484311e-27
1.575483484e-27
1.217284037e-27
9.36831179e-28
7.17481439e-28
5.461100961e-28
4.123905613e-28
3.082160738e-28
2.272380778e-28
1.644995843e-28
1.161454619e-28
7.919484377e-29
5.136364898e-29
3.092762993e-29
1.661828357e-29
7.58723109e-30
2.230698148e-27
0.1679708515
0.6793380266
1.049989014
1.294318488
1.242823876
0.7779273845
0.2730090872
0.07989988794
1.304395666
9.22319909e-25
4.119935979e-25
3.618824007e-25
3.090266406e-25
2.578919424e-25
2.116647039e-25
1.716109722e-25
1.37869037e-25
1.099930031e-25
8.728335624e-26
6.897288366e-26
5.432393965e-26
4.267389635e-26
3.345135947e-26
2.617665456e-26
2.04545275e-26
1.596361686e-26
1.244520939e-26
9.692571647e-27
7.541444055e-27
5.861888101e-27
4.551468165e-27
3.529648582e-27
2.733247276e-27
2.1127812e-27
1.629549456e-27
1.253317895e-27
9.604889967e-28
7.326602119e-28
5.554914142e-28
4.178172088e-28
3.109525598e-28
2.281506762e-28
1.641806477e-28
1.149992151e-28
7.74965971e-29
4.93007159e-29
2.862769876e-29
1.416934911e-29
5.013396413e-30
2.275895376e-27
0.3201221726
1.355392381
1.799516699
2.214443814
2.795997844
3.196880223
1.791952951
0.3195572295
6.082701701
1.349145128e-24
7.0860426e-25
6.017942488e-25
4.938255122e-25
3.954670631e-25
3.117769302e-25
2.433010023e-25
1.886078121e-25
1.45592237e-25
1.120984771e-25
8.618687344e-26
6.622194959e-26
5.087552587e-26
3.909375024e-26
3.0052714e-26
2.311433742e-26
1.778738022e-26
1.369499818e-26
1.054867248e-26
8.127702695e-27
6.263290749e-27
4.826291169e-27
3.717831541e-27
2.862151992e-27
2.201147009e-27
1.690207102e-27
1.295050313e-27
9.893065898e-28
7.526745957e-28
5.695139549e-28
4.277690026e-28
3.181452518e-28
2.334788205e-28
1.682534936e-28
1.18231028e-28
8.016861139e-29
5.16037062e-29
3.06913486e-29
1.608278386e-29
6.800915348e-30
2.25405511e-27
0.6030091218
1.622162259
1.466808102
1.61067649
2.454228168
5.280521529
6.764795839
2.02856499
37.55679126
2.186335444e-24
1.300841258e-24
1.040462498e-24
8.097403135e-25
6.172772104e-25
4.649367401e-25
3.478956563e-25
2.595221757e-25
1.934545092e-25
1.443188663e-25
1.078513427e-25
8.078542225e-26
6.066968082e-26
4.568614184e-26
3.449508664e-26
2.611185326e-26
1.981290126e-26
1.506584028e-26
1.147799984e-26
8.758895852e-27
6.692924043e-27
5.11950332e-27
3.918618204e-27
3.000267086e-27
2.29673711e-27
1.756928419e-27
1.342168415e-27
1.023113071e-27
7.774443122e-28
5.881527371e-28
4.422525085e-28
3.298166767e-28
2.432510922e-28
1.767467546e-28
1.258662324e-28
8.723134564e-29
5.828781604e-29
3.712889584e-29
2.236490243e-29
1.295390397e-29
2.166097309e-27
0.9125604987
1.655219817
0.9901537356
0.7171526438
0.3725634212
1.94026974
10.23185301
7.548938974
226.2156191
3.707491069e-24
2.527086951e-24
1.867688794e-24
1.360567878e-24
9.787167757e-25
7.00098257e-25
5.002186632e-25
3.580413966e-25
2.57217315e-25
1.856757477e-25
1.3475875e-25
9.835555004e-26
7.218749322e-26
5.326651179e-26
3.950376216e-26
2.943411374e-26
2.202492531e-26
1.65441971e-26
1.24698171e-26
9.42699902e-27
7.144998603e-27
5.427018555e-27
4.129161825e-27
3.145619943e-27
2.398181247e-27
1.828750192e-27
1.393978979e-27
1.061390763e-27
8.065630962e-28
6.110699601e-28
4.609700516e-28
3.456909151e-28
2.572017012e-28
1.893976708e-28
1.376410151e-28
9.84178441e-29
6.908216337e-29
4.766559388e-29
3.273769244e-29
2.319264914e-29
2.017169145e-27
1.202955315
1.912045886
1.175826443
1.625078275
2.758526846
1.02199838
5.278236283
15.07319232
977.0325183
6.790392593e-24
5.108194632e-24
3.451580281e-24
2.32987331e-24
1.569115663e-24
1.059790716e-24
7.200854786e-25
4.931837756e-25
3.40864525e-25
2.378523154e-25
1.675668919e-25
1.191496532e-25
8.546853814e-26
6.181114338e-26
4.50391184e-26
3.304340574e-26
2.439295732e-26
1.810719975e-26
1.350766188e-26
1.012043456e-26
7.611471861e-27
5.743272482e-27
4.345598891e-27
3.295496832e-27
2.503533752e-27
1.904234565e-27
1.449376525e-27
1.103249329e-27
8.39278004e-28
6.375988833e-28
4.833076591e-28
3.65185142e-28
2.747651824e-28
2.056495202e-28
1.530021822e-28
1.131754534e-28
8.343309748e-29
6.174619321e-29
4.664429823e-29
3.695968952e-29
1.816397527e-27
3.116765797
1.668873507
0.6954874662
0.8280012232
2.941617495
9.157653161
0.8427192665
17.55253002
2802.045306
1.411176737e-23
1.082696808e-23
6.544290531e-24
4.041632182e-24
2.527129545e-24
1.602434256e-24
1.031596959e-24
6.745884795e-25
4.48048807e-25
3.020871306e-25
2.065846654e-25
1.431504398e-25
1.004051694e-25
7.120721498e-26
5.10086597e-26
3.687095861e-26
2.686831909e-26
1.972130389e-26
1.456874496e-26
1.082380869e-26
8.081934304e-27
6.061172329e-27
4.563025525e-27
3.44643045e-27
2.610266491e-27
1.981465552e-27
1.506842987e-27
1.147428623e-27
8.744954677e-28
6.667530074e-28
5.083471968e-28
3.87424477e-28
2.950936746e-28
2.246710245e-28
1.71128388e-28
1.306885785e-28
1.005281997e-28
7.85599173e-29
6.327471564e-29
5.344597086e-29
1.57637077e-27
1.379669511
1.218975601
0.3679457408
0.03691398583
0.4938129649
9.168685606
8.04288587
11.88236389
5589.557081
3.058908179e-23
2.361444848e-23
1.258087541e-23
7.025089473e-24
4.046367778e-24
2.397694918e-24
1.459012381e-24
9.100995511e-25
5.808512074e-25
3.785731315e-25
2.514896637e-25
1.699759611e-25
1.166837094e-25
8.122676617e-26
5.725583222e-26
4.081235894e-26
2.938241814e-26
2.134174192e-26
1.562385913e-26
1.151797333e-26
8.543705576e-27
6.372186768e-27
4.775571399e-27
3.594259215e-27
2.715317627e-27
2.058091276e-27
1.564486503e-27
1.192336099e-27
9.108186168e-28
6.972640482e-28
5.349053629e-28
4.112821303e-28
3.170982152e-28
2.453987108e-28
1.90973441e-28
1.499227957e-28
1.193410592e-28
9.708576063e-29
8.161147562e-29
7.163676949e-29
1.31237325e-27
0.3969160617
0.4705176322
0.3729188159
0.08487983244
0.1382682606
4.398321787
16.32081354
3.644343074
8333.414471
6.081323868e-23
5.143096883e-23
2.394568129e-23
1.199252562e-23
6.337502296e-24
3.505313147e-24
2.017030809e-24
1.201583613e-24
7.380214329e-25
4.657241117e-25
3.010252309e-25
1.987566136e-25
1.337361336e-25
9.150889849e-26
6.35543179e-26
4.472636456e-26
3.184705762e-26
2.29131854e-26
1.663800695e-26
1.218052136e-26
8.982199366e-27
6.666609249e-27
4.97659151e-27
3.734271283e-27
2.815204859e-27
2.131417818e-27
1.620123254e-27
1.236121334e-27
9.466173852e-28
7.276494081e-28
5.615995965e-28
4.354443908e-28
3.395131849e-28
2.666010328e-28
2.113302306e-28
1.696886577e-28
1.38695001e-28
1.161561651e-28
1.004932867e-28
9.037529965e-29
1.041416549e-27
0.1100985098
0.09941520822
0.1307109993
0.08204270044
0.07285601215
1.159402095
15.64356314
0.1474592544
9563.478486
1.466643359e-22
1.053638509e-22
4.311678284e-23
1.948487949e-23
9.504114364e-24
4.932993833e-24
2.696296419e-24
1.53980608e-24
9.131313051e-25
5.595088075e-25
3.527670994e-25
2.280597605e-25
1.507206054e-25
1.015585446e-25
6.96115939e-26
4.843883727e-26
3.415756738e-26
2.437197167e-26
1.757190894e-26
1.278678983e-26
9.381591825e-27
6.934011389e-27
5.158983715e-27
3.861436868e-27
2.906204293e-27
2.198554392e-27
1.671401162e-27
1.276785775e-27
9.801290114e-28
7.563063663e-28
5.869378319e-28
4.5849716e-28
3.609804365e-28
2.869606596e-28
2.309115854e-28
1.887214328e-28
1.573419542e-28
1.345352275e-28
1.186927646e-28
1.08440118e-28
7.811282857e-28
0.03548278071
0.02825240607
0.02192423348
0.01584074746
0.01566149412
0.1141994584
10.72108261
3.897509167
8182.271793
4.524629113e-22
1.858180176e-22
6.970559933e-23
2.921318966e-23
1.338288566e-23
6.593314605e-24
3.450705424e-24
1.900525652e-24
1.093396026e-24
6.531369368e-25
4.030731643e-25
2.559088262e-25
1.665504213e-25
1.107699469e-25
7.508510042e-26
5.175313323e-26
3.619927071e-26
2.565007849e-26
1.838444749e-26
1.33113795e-26
9.725786869e-27
7.163875985e-27
5.315621535e-27
3.970719259e-27
2.984586305e-27
2.256601939e-27
1.715958017e-27
1.312320697e-27
1.009582193e-27
7.81626476e-28
6.094257675e-28
4.79027861e-28
3.801470746e-28
3.051690198e-28
2.484422566e-28
2.057710629e-28
1.740508252e-28
1.510058633e-28
1.35002721e-28
1.246308291e-28
5.485738247e-28
0.01230577746
0.01246450209
0.009188568462
0.008664701716
0.00770834292
0.5919353884
7.069145835
10.94736273
5408.537561
9.151641789e-22
2.773190135e-22
9.972269984e-23
3.991555957e-23
1.750090412e-23
8.289882584e-24
4.193552178e-24
2.243870137e-24
1.259892298e-24
7.373786761e-25
4.473271033e-25
2.799396811e-25
1.799873077e-25
1.184804159e-25
7.961274192e-26
5.446734001e-26
3.785726356e-26
2.668072975e-26
1.903593395e-26
1.373010393e-26
9.999615603e-27
7.346364853e-27
5.439869644e-27
4.057439923e-27
3.046888973e-27
2.302869137e-27
1.751600413e-27
1.340861351e-27
1.033334074e-27
8.021202458e-28
6.276824362e-28
4.957340745e-28
3.957686993e-28
3.200252916e-28
2.627545307e-28
2.19695098e-28
1.876983336e-28
1.644590432e-28
1.483242428e-28
1.378553993e-28
3.590946419e-28
0.003752123676
0.006427482755
0.005925692288
0.02464144498
0.03148181783
1.088344949
3.892638533
18.24262373
2312.088648
9.668291327e-22
3.651255415e-22
1.276832176e-22
4.961433877e-23
2.111234385e-23
9.729054875e-24
4.804364625e-24
2.518426199e-24
1.389837897e-24
8.017728307e-25
4.805618337e-25
2.977189754e-25
1.898039113e-25
1.240538002e-25
8.285623558e-26
5.639711449e-26
3.902865916e-26
2.74050994e-26
1.949187247e-26
1.402216817e-26
1.019014531e-26
7.473141119e-27
5.52612776e-27
4.117659123e-27
3.090200146e-27
2.335093057e-27
1.776484752e-27
1.360841396e-27
1.050006188e-27
8.165397459e-28
6.405528806e-28
5.075286206e-28
4.068085664e-28
3.305308827e-28
2.728789905e-28
2.295465078e-28
1.973545156e-28
1.739775383e-28
1.577491655e-28
1.472117934e-28
2.252490683e-28
0.0006085161199
0.004116061896
0.003878051576
0.03484079334
0.07388858474
1.233269558
2.839567212
22.47120632
291.4000353
6.15399923e-22
4.239461626e-22
1.4552953e-22
5.561430018e-23
2.328223494e-23
1.057149856e-23
5.153889093e-24
2.672517567e-24
1.461583883e-24
8.368414876e-25
4.984547012e-25
3.071996294e-25
1.949967444e-25
1.26982328e-25
8.455098105e-26
5.740070811e-26
3.963547296e-26
2.777913216e-26
1.972668404e-26
1.417227564e-26
1.028792185e-26
7.538138116e-27
5.570333185e-27
4.148524146e-27
3.112413337e-27
2.351637801e-27
1.789278973e-27
1.371129886e-27
1.058604185e-27
8.239858638e-28
6.472061006e-28
5.1363038e-28
4.125228453e-28
3.359702924e-28
2.781218827e-28
2.346482828e-28
2.023551609e-28
1.789067084e-28
1.626296723e-28
1.520567913e-28
1.559358271e-28
0.0006085226901
0.004116062909
0.003878054473
0.03484075861
0.07388850939
1.233269659
2.839564731
22.47119837
291.3999666
6.153995547e-22
4.239461319e-22
1.455295065e-22
5.561429645e-23
2.328223829e-23
1.057150288e-23
5.15389258e-24
2.672520015e-24
1.461585512e-24
8.368425514e-25
4.984553971e-25
3.072000901e-25
1.949970548e-25
1.269825416e-25
8.455113123e-26
5.740081591e-26
3.963555181e-26
2.777919078e-26
1.972672822e-26
1.41723093e-26
1.02879477e-26
7.538158068e-27
5.570348628e-27
4.148536097e-27
3.112422556e-27
2.351644866e-27
1.789284327e-27
1.371133874e-27
1.058607078e-27
8.239878772e-28
6.472074058e-28
5.136311153e-28
4.12523123e-28
3.359702038e-28
2.781215031e-28
2.346476747e-28
2.023543767e-28
1.789057927e-28
1.626286638e-28
1.520557554e-28
1.557682999e-28
0.003752137032
0.006427480004
0.005925689736
0.02464133988
0.0314817439
1.088344886
3.892633683
18.24260745
2312.086881
9.668287679e-22
3.651252888e-22
1.276831192e-22
4.961432064e-23
2.11123515e-23
9.729066781e-24
4.804374549e-24
2.518433245e-24
1.389842607e-24
8.017759177e-25
4.805638575e-25
2.977203177e-25
1.898048178e-25
1.240544253e-25
8.285667607e-26
5.639743138e-26
3.902889146e-26
2.740527247e-26
1.949200317e-26
1.402226792e-26
1.019022204e-26
7.473200444e-27
5.526173747e-27
4.117694765e-27
3.090227682e-27
2.335114191e-27
1.776500796e-27
1.360853372e-27
1.050014898e-27
8.165458295e-28
6.405568479e-28
5.075308831e-28
4.068094581e-28
3.305306764e-28
2.72877911e-28
2.295447418e-28
1.973522201e-28
1.73974847e-28
1.577461948e-28
1.472087384e-28
2.247487299e-28
0.01230577568
0.01246447733
0.009188520048
0.008664581892
0.007708477223
0.5919357853
7.069139325
10.94735023
5408.53246
9.151634678e-22
2.773184748e-22
9.972250116e-23
3.99155169e-23
1.750091146e-23
8.289899707e-24
4.193567214e-24
2.243881002e-24
1.259899621e-24
7.373834976e-25
4.47330276e-25
2.799417932e-25
1.799887397e-25
1.184814076e-25
7.961344385e-26
5.446784727e-26
3.785763704e-26
2.668100918e-26
1.903614578e-26
1.373026618e-26
9.99974083e-27
7.346461987e-27
5.439945166e-27
4.057498628e-27
3.046934463e-27
2.302904159e-27
1.751627092e-27
1.340881344e-27
1.033348691e-27
8.021305268e-28
6.276892171e-28
4.957380299e-28
3.95770378e-28
3.200251431e-28
2.627529262e-28
2.196923465e-28
1.876946956e-28
1.644547417e-28
1.48319472e-28
1.378504813e-28
3.582681987e-28
0.03548271835
0.02825231301
0.02192404183
0.01584059853
0.01566171979
0.1142011603
10.721066
3.897505733
8182.264021
4.524610616e-22
1.858171742e-22
6.970529534e-23
2.9213119e-23
1.338288981e-23
6.593334789e-24
3.450724079e-24
1.900539346e-24
1.093405319e-24
6.531430825e-25
4.03077225e-25
2.559115422e-25
1.665522728e-25
1.107712371e-25
7.508601967e-26
5.175380199e-26
3.619976632e-26
2.56504516e-26
1.838473199e-26
1.331159859e-26
9.725956812e-27
7.164008422e-27
5.315724965e-27
3.970800006e-27
2.984649149e-27
2.256650545e-27
1.715995229e-27
1.312348748e-27
1.009602851e-27
7.81641154e-28
6.094356027e-28
4.790337748e-28
3.801498191e-28
3.051692132e-28
2.484404108e-28
2.057676062e-28
1.7404612e-28
1.510002212e-28
1.349964147e-28
1.246243025e-28
5.474323783e-28
0.1100982907
0.09941485856
0.1307104483
0.0820427321
0.07285686694
1.159398946
15.64353574
0.1474592113
9563.470599
1.466623179e-22
1.053627388e-22
4.311640511e-23
1.948479077e-23
9.504116861e-24
4.933016299e-24
2.696317571e-24
1.539821664e-24
9.131418912e-25
5.595158189e-25
3.527717465e-25
2.280628843e-25
1.507227493e-25
1.015600505e-25
6.961267622e-26
4.843963166e-26
3.415816121e-26
2.43724224e-26
1.757225526e-26
1.278705842e-26
9.381801539e-27
6.934175821e-27
5.159112882e-27
3.86153828e-27
2.906283668e-27
2.198616148e-27
1.671448748e-27
1.276821916e-27
9.801558762e-28
7.563256963e-28
5.869510351e-28
4.585053824e-28
3.609846174e-28
2.869615744e-28
2.309098793e-28
1.887176483e-28
1.573365532e-28
1.345286092e-28
1.186852809e-28
1.084323274e-28
7.796872186e-28
0.3969154671
0.4705168235
0.3729184548
0.0848805767
0.1382689495
4.398296974
16.32081845
3.644305981
8333.4152
6.081204898e-23
5.14297808e-23
2.394530419e-23
1.19924407e-23
6.337508673e-24
3.505338573e-24
2.017053858e-24
1.201600321e-24
7.380326845e-25
4.657315379e-25
3.010301581e-25
1.987599421e-25
1.337384361e-25
9.151053179e-26
6.355550455e-26
4.472724523e-26
3.184772308e-26
2.291369565e-26
1.663840272e-26
1.218083098e-26
8.98244305e-27
6.666801746e-27
4.976743795e-27
3.734391667e-27
2.815299733e-27
2.13149216e-27
1.620180985e-27
1.236165572e-27
9.466506299e-28
7.276736778e-28
5.616165326e-28
4.354553362e-28
3.395192459e-28
2.666031274e-28
2.113291275e-28
1.696850067e-28
1.386893594e-28
1.161490184e-28
1.00485066e-28
9.036666868e-29
1.039695366e-27
1.379668788
1.218975521
0.3679457338
0.03691357954
0.4938054686
9.168647735
8.042926588
11.88232006
5589.568832
3.058797889e-23
2.361364729e-23
1.258058365e-23
7.025029994e-24
4.046384268e-24
2.397724563e-24
1.459037023e-24
9.101167572e-25
5.808625642e-25
3.785805578e-25
2.514945851e-25
1.699793023e-25
1.166860424e-25
8.122844115e-26
5.725706538e-26
4.081328648e-26
2.938312813e-26
2.134229294e-26
1.562429129e-26
1.151831487e-26
8.543976909e-27
6.372402973e-27
4.775743845e-27
3.594396621e-27
2.715426777e-27
2.058177508e-27
1.564554062e-27
1.192388393e-27
9.108583964e-28
6.972935521e-28
5.349264225e-28
4.112962535e-28
3.171066513e-28
2.454025031e-28
1.909734682e-28
1.499198067e-28
1.193357011e-28
9.707860246e-29
8.160302737e-29
7.162778835e-29
1.310395373e-27
3.116767853
1.668874215
0.6954863559
0.8279988935
2.941602716
9.15766541
0.842723201
17.55253626
2802.052417
1.411125434e-23
1.082637139e-23
6.544062994e-24
4.041603927e-24
2.527160159e-24
1.602469002e-24
1.031622811e-24
6.746055645e-25
4.480597478e-25
3.020941841e-25
2.065893288e-25
1.431536255e-25
1.004074202e-25
7.120885526e-26
5.10098869e-26
3.687189655e-26
2.6869048e-26
1.972187753e-26
1.456920062e-26
1.082417298e-26
8.082226775e-27
6.061407658e-27
4.563214955e-27
3.446582732e-27
2.610388525e-27
1.981562842e-27
1.506919957e-27
1.147488858e-27
8.745418923e-28
6.667880177e-28
5.083727681e-28
3.874422466e-28
2.951050079e-28
2.24677069e-28
1.711301174e-28
1.306868294e-28
1.005237016e-28
7.855331857e-29
6.326660383e-29
5.343718235e-29
1.574163291e-27
1.202956714
1.912047069
1.175826657
1.625078396
2.758533794
1.022009351
5.278221498
15.07321483
977.034349
6.790217337e-24
5.107535058e-24
3.451396168e-24
2.32988493e-24
1.569164066e-24
1.059830629e-24
7.20111714e-25
4.931999846e-25
3.408745299e-25
2.378586643e-25
1.675710867e-25
1.19152547e-25
8.54706159e-26
6.181268655e-26
4.504029582e-26
3.304432276e-26
2.439368249e-26
1.810777953e-26
1.350812898e-26
1.01208128e-26
7.61177907e-27
5.743522318e-27
4.345802019e-27
3.295661703e-27
2.50366714e-27
1.904341951e-27
1.449462373e-27
1.103317299e-27
8.393311115e-28
6.376396212e-28
4.833380986e-28
3.652070123e-28
2.747799355e-28
2.056583847e-28
1.530062087e-28
1.131755523e-28
8.343007115e-29
6.174076308e-29
4.663712655e-29
3.695167503e-29
1.813990918e-27
0.9125614876
1.655220139
0.9901527237
0.7171516324
0.3725616726
1.940262923
10.23185934
7.548951475
226.2158465
3.705017109e-24
2.526141659e-24
1.867607978e-24
1.360642703e-24
9.78785432e-25
7.001414975e-25
5.002436175e-25
3.580557486e-25
2.572258603e-25
1.85681111e-25
1.347623166e-25
9.835805395e-26
7.218933292e-26
5.326791226e-26
3.950485658e-26
2.94349851e-26
2.202562811e-26
1.654476892e-26
1.247028498e-26
9.427383164e-27
7.145314511e-27
5.427278409e-27
4.12937536e-27
3.14579504e-27
2.398324343e-27
1.828866584e-27
1.394073049e-27
1.061466148e-27
8.066228264e-28
6.111165662e-28
4.61005654e-28
3.45717297e-28
2.572203703e-28
1.894099119e-28
1.376479348e-28
9.842041037e-29
6.908123884e-29
4.766196445e-29
3.273209023e-29
2.318601551e-29
2.014596929e-27
0.6030106324
1.622164194
1.466807771
1.610675766
2.454228661
5.280528212
6.764809928
2.028562134
37.55674365
2.184173111e-24
1.301063553e-24
1.040729872e-24
8.098990646e-25
6.173588523e-25
4.649776353e-25
3.479166441e-25
2.595335488e-25
1.934611367e-25
1.443230478e-25
1.078541865e-25
8.078748194e-26
6.067124576e-26
4.568737203e-26
3.449607624e-26
2.611266142e-26
1.981356758e-26
1.506639284e-26
1.147845955e-26
8.759278847e-27
6.693243161e-27
5.119768969e-27
3.918838942e-27
3.000450023e-27
2.296888185e-27
1.757052614e-27
1.342269921e-27
1.02319542e-27
7.775104835e-28
5.882052444e-28
4.422934773e-28
3.298479082e-28
2.432741193e-28
1.767628919e-28
1.258766204e-28
8.723699068e-29
5.828962538e-29
3.712770817e-29
2.23615122e-29
1.294927231e-29
2.163395691e-27
0.3201232388
1.355395666
1.799519443
2.214446807
2.796002897
3.196888358
1.791954884
0.3195548983
6.082706848
1.350630445e-24
7.095729607e-25
6.021757635e-25
4.939801471e-25
3.955323472e-25
3.118061568e-25
2.433151498e-25
1.88615354e-25
1.455967099e-25
1.121014172e-25
8.618897956e-26
6.622355759e-26
5.087680753e-26
3.909479996e-26
3.005358795e-26
2.311507186e-26
1.778800046e-26
1.36955231e-26
1.054911688e-26
8.128078629e-27
6.263608261e-27
4.826558752e-27
3.71805644e-27
2.862340412e-27
2.201304277e-27
1.690337789e-27
1.295158339e-27
9.893953114e-28
7.527468845e-28
5.695722625e-28
4.278154214e-28
3.181815683e-28
2.335065643e-28
1.682739837e-28
1.182454155e-28
8.017791955e-29
5.160886821e-29
3.06932406e-29
1.608225157e-29
6.798913087e-30
2.251262576e-27
0.1679710158
0.6793388856
1.049990203
1.294319573
1.242824897
0.7779273792
0.2730082081
0.07989940833
1.304413869
9.241014564e-25
4.124821071e-25
3.620649748e-25
3.090976971e-25
2.579211187e-25
2.116776893e-25
1.716174563e-25
1.37872761e-25
1.099954589e-25
8.728516547e-26
6.897432001e-26
5.432513217e-26
4.267491105e-26
3.34522336e-26
2.61774116e-26
2.045518398e-26
1.59641856e-26
1.244570103e-26
9.692995444e-27
7.541808198e-27
5.862199926e-27
4.55173425e-27
3.529874813e-27
2.733438894e-27
2.112942852e-27
1.629685237e-27
1.253431395e-27
9.605833483e-28
7.327381361e-28
5.555552642e-28
4.178690129e-28
3.109940631e-28
2.281833814e-28
1.642058553e-28
1.150180641e-28
7.751010574e-29
4.930982157e-29
2.863329546e-29
1.417231817e-29
5.014654262e-30
2.273052265e-27
0.1285788792
0.3422074146