/*--------------------------------*- C++ -*----------------------------------*\
  =========                 |
  \\      /  F ield         | OpenFOAM: The Open Source CFD Toolbox
   \\    /   O peration     | Website:  https://openfoam.org
    \\  /    A nd           | Version:  6
     \\/     M anipulation  |
\*---------------------------------------------------------------------------*/
FoamFile
{
    version     2.0;
    format      ascii;
    class       surfaceScalarField;
    location    "0.05";
    object      alphaPhi0.phase1;
}
// * * * * * * * * * * * * * * * * * * * * * * * * * * * * * * * * * * * * * //

dimensions      [0 3 -1 0 0 0 0];

internalField   nonuniform List<scalar> 
4900
(
-7.481911457e-32
-3.435810463e-32
-1.20995803e-31
-6.015173043e-32
-1.411419816e-30
-2.112471409e-31
-3.341098244e-29
-5.432089713e-30
-9.167552798e-28
-1.357484496e-29
-1.300548753e-27
-3.474211826e-27
1.290859245e-23
-1.2909893e-23
8.932470245e-18
-5.90618895e-20
-3.920047245e-21
-8.147885426e-25
-3.88672316e-21
-3.3324085e-23
-3.821586981e-21
-6.513924599e-23
-3.726802396e-21
-9.479148212e-23
-3.605485106e-21
-1.21327787e-22
-3.461440851e-21
-1.440582589e-22
-3.298903181e-21
-1.625551369e-22
-3.122279239e-21
-1.76644839e-22
-2.9359214e-21
-1.863821316e-22
-2.743939066e-21
-1.920099788e-22
-2.550058211e-21
-1.939118062e-22
-2.357529729e-21
-1.925626862e-22
-2.16908267e-21
-1.884844613e-22
-1.98691523e-21
-1.822079775e-22
-1.812714955e-21
-1.742438808e-22
-1.647699477e-21
-1.650620802e-22
-1.492669928e-21
-1.550790721e-22
-1.348070479e-21
-1.446518146e-22
-1.214048935e-21
-1.340766653e-22
-1.090514789e-21
-1.235919373e-22
-9.771923539e-22
-1.13382804e-22
-8.73667683e-22
-1.035875229e-22
-7.794287307e-22
-9.430418942e-23
-6.938987883e-22
-8.559746403e-23
-6.164635874e-22
-7.750490337e-23
-5.464926854e-22
-7.004267955e-23
-4.833558459e-22
-6.321058392e-23
-4.264351559e-22
-5.699629118e-23
-3.751335898e-22
-5.137891199e-23
-3.288806729e-22
-4.633189384e-23
-2.8713582e-22
-4.182534564e-23
-2.493898448e-22
-3.782786738e-23
-2.151650537e-22
-3.43079649e-23
-1.840142664e-22
-3.123512413e-23
-1.555190343e-22
-2.858061229e-23
-1.292872718e-22
-2.631806574e-23
-1.049504571e-22
-2.442391998e-23
-8.216050194e-23
-2.287774127e-23
-6.058629091e-23
-2.166255614e-23
-3.990964386e-23
-2.076542936e-23
-1.981957365e-23
-2.017916773e-23
-1.990886377e-23
-1.472224843e-28
-2.292464573e-28
-1.361213845e-29
-2.7331481e-28
-1.439587215e-29
-1.933217676e-29
-2.567589182e-29
-1.874579553e-28
-2.349414216e-29
-2.747427753e-29
-6.594645478e-28
-2.819208158e-27
-1.937905599e-25
-1.271536733e-23
1.413528525e-18
-5.847201999e-20
-3.952744548e-21
-4.355614417e-25
-3.918532568e-21
-6.754219074e-23
-3.85123445e-21
-1.324501996e-22
-3.753335248e-21
-1.927101336e-22
-3.628213435e-21
-2.464753495e-22
-3.479936854e-21
-2.923667814e-22
-3.312993149e-21
-3.29536911e-22
-3.132017738e-21
-3.576643784e-22
-2.941551154e-21
-3.76898828e-22
-2.745843259e-21
-3.877738876e-22
-2.54871169e-21
-3.911051941e-22
-2.353454149e-21
-3.878877488e-22
-2.162808731e-21
-3.79202993e-22
-1.978953474e-21
-3.661418182e-22
-1.803535229e-21
-3.497460531e-22
-1.637718246e-21
-3.309681956e-22
-1.482244146e-21
-3.106473677e-22
-1.337496515e-21
-2.894985525e-22
-1.203565127e-21
-2.681119133e-22
-1.080306342e-21
-2.469591728e-22
-9.673975585e-22
-2.264044569e-22
-8.643846685e-22
-2.067175266e-22
-7.707221891e-22
-1.880878459e-22
-6.858063047e-22
-1.706384035e-22
-6.090013591e-22
-1.544385923e-22
-5.39660525e-22
-1.395157514e-22
-4.771414458e-22
-1.258651979e-22
-4.208176413e-22
-1.13458727e-22
-3.700864197e-22
-1.022516578e-22
-3.243739655e-22
-9.218855912e-23
-2.831381823e-22
-8.320781793e-23
-2.45869788e-22
-7.524521837e-23
-2.120920677e-22
-6.823669681e-23
-1.813596214e-22
-6.212042321e-23
-1.532563688e-22
-5.683834335e-23
-1.27393023e-22
-5.233729953e-23
-1.034041929e-22
-4.856983045e-23
-8.094525174e-23
-4.549473814e-23
-5.968912808e-23
-4.307749401e-23
-3.932340766e-23
-4.129050783e-23
-1.954926519e-23
-4.011300398e-23
-3.952862386e-23
-1.707010474e-25
-1.377643624e-24
-1.820893231e-26
-1.092054441e-24
-8.394762223e-28
-7.200129454e-26
-5.196203677e-29
-2.519994975e-27
-3.135236246e-29
-7.268015627e-29
3.644768667e-29
-2.974806953e-27
-1.190679597e-23
-8.058203861e-25
5.068644939e-18
-4.277068867e-20
-4.020168787e-21
-6.396053325e-25
-3.983431331e-21
-1.042846623e-22
-3.91148517e-21
-2.044070527e-22
-3.807093579e-21
-2.971181312e-22
-3.674100635e-21
-3.794901738e-22
-3.517105379e-21
-4.493893122e-22
-3.341121363e-21
-5.055535441e-22
-3.151254852e-21
-5.475687928e-22
-2.952430287e-21
-5.757665171e-22
-2.749179534e-21
-5.910729133e-22
-2.545499646e-21
-5.948384227e-22
-2.344774843e-21
-5.886708707e-22
-2.14975276e-21
-5.742882754e-22
-1.962562468e-21
-5.534000885e-22
-1.784761564e-21
-5.276196012e-22
-1.617400991e-21
-4.984059604e-22
-1.46109828e-21
-4.670316942e-22
-1.316112234e-21
-4.345705077e-22
-1.182414207e-21
-4.019000036e-22
-1.059752975e-21
-3.697144823e-22
-9.477115763e-22
-3.38543799e-22
-8.457556037e-22
-3.087751556e-22
-7.532730949e-22
-2.806755673e-22
-6.696066315e-22
-2.544134745e-22
-5.940784962e-22
-2.300785654e-22
-5.260098318e-22
-2.076993152e-22
-4.647347528e-22
-1.872580664e-22
-4.096102961e-22
-1.687036887e-22
-3.600230143e-22
-1.519619831e-22
-3.153929043e-22
-1.369440716e-22
-2.751752635e-22
-1.235530388e-22
-2.388609582e-22
-1.116890978e-22
-2.059755047e-22
-1.012535337e-22
-1.760772765e-22
-9.215165765e-23
-1.487550883e-22
-8.429497311e-23
-1.236253485e-22
-7.760272786e-23
-1.003289284e-22
-7.200299658e-23
-7.852787001e-23
-6.743341048e-23
-5.790203821e-23
-6.384161733e-23
-3.814582194e-23
-6.118550206e-23
-1.896479443e-23
-5.943310123e-23
-5.856209519e-23
-5.03928913e-23
-3.648809051e-22
-7.634023959e-24
-2.54240471e-22
-4.851615441e-25
-4.45495832e-23
-1.480081747e-27
-3.84338659e-24
-1.390769302e-27
-1.521641956e-26
-6.285819757e-28
-4.847675027e-27
-8.039548656e-25
-3.571511043e-27
2.400152455e-18
-5.977486646e-20
-4.124165894e-21
-7.753580309e-25
-4.083538204e-21
-1.449172889e-22
-4.004181636e-21
-2.837741208e-22
-3.889454965e-21
-4.118609219e-22
-3.743993469e-21
-5.249731828e-22
-3.57326754e-21
-6.20142072e-22
-3.383138263e-21
-6.957149183e-22
-3.179457198e-21
-7.512871679e-22
-2.967743424e-21
-7.875227489e-22
-2.752953071e-21
-8.05910802e-22
-2.539340672e-21
-8.085033534e-22
-2.330400784e-21
-7.976682005e-22
-2.128872631e-21
-7.758786835e-22
-1.936789268e-21
-7.455504172e-22
-1.755554279e-21
-7.089261579e-22
-1.586032088e-21
-6.680042043e-22
-1.428641478e-21
-6.245027199e-22
-1.283445198e-21
-5.798514363e-22
-1.150231334e-21
-5.352026153e-22
-1.028584227e-21
-4.914542943e-22
-9.179442674e-22
-4.49280276e-22
-8.176568573e-22
-4.091627457e-22
-7.270114507e-22
-3.714246614e-22
-6.452718653e-22
-3.36260096e-22
-5.716991582e-22
-3.037614947e-22
-5.055683281e-22
-2.739433875e-22
-4.461800048e-22
-2.467624828e-22
-3.928681469e-22
-2.221343186e-22
-3.450046188e-22
-1.999467874e-22
-3.020013733e-22
-1.800709207e-22
-2.633108296e-22
-1.623693346e-22
-2.284249213e-22
-1.467027258e-22
-1.968731868e-22
-1.329347733e-22
-1.682201887e-22
-1.209357623e-22
-1.420624839e-22
-1.105852012e-22
-1.180253057e-22
-1.0177366e-22
-9.575908086e-23
-9.440401921e-23
-7.493586651e-23
-8.839227892e-23
-5.524576329e-23
-8.36680426e-23
-3.639330966e-23
-8.017475624e-23
-1.809373208e-23
-7.786976664e-23
-7.6724342e-23
-1.357981443e-21
-4.539379754e-21
-3.760095628e-22
-3.588779058e-21
-5.043359692e-23
-1.56094542e-21
-5.507016728e-25
-3.95885005e-22
-2.209059405e-27
-1.053053233e-23
-3.340446037e-28
-1.691954574e-26
9.737443036e-27
-4.396293025e-27
-1.427894276e-17
-1.284777085e-19
-4.268590001e-21
-5.855836979e-25
-4.222372007e-21
-1.911402175e-22
-4.132247451e-21
-3.739091621e-22
-4.0025524e-21
-5.415720716e-22
-3.839154101e-21
-6.883929657e-22
-3.64883836e-21
-8.104846093e-22
-3.438713822e-21
-9.058715139e-22
-3.21570021e-21
-9.743380444e-22
-2.98614172e-21
-1.017123645e-21
-2.755557444e-21
-1.036542557e-21
-2.528517869e-21
-1.035595397e-21
-2.308623329e-21
-1.017620114e-21
-2.098555565e-21
-9.8600863e-22
-1.900174989e-21
-9.439978802e-22
-1.714640908e-21
-8.945317236e-22
-1.542537746e-21
-8.401833302e-22
-1.383995951e-21
-7.831248362e-22
-1.238800864e-21
-7.251310731e-22
-1.106486379e-21
-6.676057432e-22
-9.864126179e-22
-6.116206521e-22
-8.77828351e-22
-5.579609477e-22
-7.799197432e-22
-5.071714162e-22
-6.918473477e-22
-4.596006229e-22
-6.127733372e-22
-4.154410172e-22
-5.418808352e-22
-3.747640897e-22
-4.783870019e-22
-3.375503302e-22
-4.215512809e-22
-3.037141606e-22
-3.706799717e-22
-2.731242601e-22
-3.251280661e-22
-2.456198266e-22
-2.842990916e-22
-2.210233533e-22
-2.476435399e-22
-1.991504902e-22
-2.146563209e-22
-1.798175139e-22
-1.84873574e-22
-1.628468723e-22
-1.57869081e-22
-1.480712067e-22
-1.332504576e-22
-1.353361906e-22
-1.106552454e-22
-1.245024668e-22
-8.974698895e-23
-1.154469121e-22
-7.021134772e-23
-1.080634108e-22
-5.175226388e-23
-1.022632829e-22
-3.408817656e-23
-9.797547644e-23
-1.694823641e-23
-9.514662577e-23
-9.374108715e-23
-6.779911797e-21
-9.861376195e-21
-3.331441461e-21
-9.601654895e-21
-9.498706053e-22
-7.090982017e-21
-3.073837645e-23
-3.805816268e-21
7.099431676e-25
-6.006772272e-22
2.465407708e-26
-4.826046807e-24
2.975797138e-25
-2.579063804e-25
-8.353777813e-18
-1.942515626e-20
-4.459152091e-21
3.974897777e-25
-4.405108188e-21
-2.451890574e-22
-4.299881725e-21
-4.791461117e-22
-4.149353878e-21
-6.921160189e-22
-3.961235873e-21
-8.765324582e-22
-3.744224179e-21
-1.027523103e-21
-3.507186533e-21
-1.142941222e-21
-3.258497359e-21
-1.223064488e-21
-3.005575611e-21
-1.270087806e-21
-2.754626949e-21
-1.287538703e-21
-2.510559522e-21
-1.279715301e-21
-2.277028011e-21
-1.251209006e-21
-2.056559517e-21
-1.206539313e-21
-1.850721685e-21
-1.149902609e-21
-1.660303364e-21
-1.085021537e-21
-1.485488118e-21
-1.01507455e-21
-1.3260092e-21
-9.426840842e-22
-1.181280889e-21
-8.699439439e-22
-1.050505211e-21
-7.984700736e-22
-9.327556359e-22
-7.294628337e-22
-8.270405617e-22
-6.637724365e-22
-7.323499121e-22
-6.019621383e-22
-6.476880999e-22
-5.44366011e-22
-5.720963129e-22
-4.911397249e-22
-5.046666488e-22
-4.423038565e-22
-4.445501767e-22
-3.977799215e-22
-3.909605776e-22
-3.574197263e-22
-3.431746518e-22
-3.210288279e-22
-3.005306722e-22
-2.883849493e-22
-2.624253109e-22
-2.592521819e-22
-2.283096769e-22
-2.333917372e-22
-1.976848435e-22
-2.105699251e-22
-1.700971376e-22
-1.905639387e-22
-1.451333688e-22
-1.731659349e-22
-1.224161188e-22
-1.58185814e-22
-1.015991606e-22
-1.454530266e-22
-8.236304478e-23
-1.348176704e-22
-6.441086488e-23
-1.261510866e-22
-4.746419086e-23
-1.193461175e-22
-3.125914785e-23
-1.143171554e-22
-1.5542609e-23
-1.11000086e-22
-1.093522136e-22
-1.16601375e-20
-1.148410383e-20
-8.49905545e-21
-1.309495145e-20
-4.606667317e-21
-1.217102482e-20
-9.831628036e-22
-9.771104399e-21
3.416359808e-23
-4.302170413e-21
7.181022576e-24
-3.07247738e-22
1.653724193e-22
-1.584211023e-22
2.961227084e-18
7.759702197e-20
-4.704285991e-21
9.702832147e-25
-4.639021544e-21
-3.104584416e-22
-4.512813862e-21
-6.053642838e-22
-4.33374598e-21
-8.712000054e-22
-4.112215786e-21
-1.098084145e-21
-3.859643671e-21
-1.280122025e-21
-3.587320746e-21
-1.415296217e-21
-3.305538281e-21
-1.50488423e-21
-3.023047964e-21
-1.552620546e-21
-2.746826471e-21
-1.563807693e-21
-2.482075795e-21
-1.544518466e-21
-2.232379274e-21
-1.500962922e-21
-1.999941405e-21
-1.439039387e-21
-1.785856489e-21
-1.364054437e-21
-1.590369477e-21
-1.280580059e-21
-1.413108112e-21
-1.192411905e-21
-1.253277133e-21
-1.102595412e-21
-1.109813016e-21
-1.013492639e-21
-9.815022197e-22
-9.268695422e-22
-8.670680538e-22
-8.43989626e-22
-7.652319336e-22
-7.657049918e-22
-6.747545636e-22
-6.925396018e-22
-5.944619176e-22
-6.247622542e-22
-5.232600533e-22
-5.624485315e-22
-4.601419742e-22
-5.055320605e-22
-4.041890108e-22
-4.538460263e-22
-3.545685693e-22
-4.071561568e-22
-3.105295952e-22
-3.651864666e-22
-2.713967122e-22
-3.276389982e-22
-2.365636991e-22
-2.942086852e-22
-2.054867519e-22
-2.645943201e-22
-1.77677819e-22
-2.385064586e-22
-1.526981843e-22
-2.156729564e-22
-1.301523961e-22
-1.958427049e-22
-1.096825827e-22
-1.78788023e-22
-9.096316176e-23
-1.643060706e-22
-7.369592572e-23
-1.5221957e-22
-5.760546817e-23
-1.423770604e-22
-4.243490851e-23
-1.346528574e-22
-2.794186519e-23
-1.289468537e-22
-1.389463011e-23
-1.25184261e-22
-1.233153711e-22
-1.149083862e-20
-1.023931619e-20
-1.069342115e-20
-1.358013732e-20
-8.177835478e-21
-1.47553893e-20
-4.264568994e-21
-1.408446848e-20
-4.036814318e-22
-9.870432625e-21
6.288666416e-23
-2.769395764e-21
4.310614337e-22
-5.265902191e-22
3.541275227e-18
-5.080010854e-20
-5.01490597e-21
3.665243664e-25
-4.933869487e-21
-3.914998642e-22
-4.778600262e-21
-7.606440031e-22
-4.560600672e-21
-1.089215704e-21
-4.294243573e-21
-1.364462742e-21
-3.994824221e-21
-1.57956819e-21
-3.676927388e-21
-1.733225129e-21
-3.353301061e-21
-1.828547845e-21
-3.034265426e-21
-1.871698616e-21
-2.727568251e-21
-1.870552375e-21
-2.438549705e-21
-1.833589515e-21
-2.170482242e-21
-1.769087793e-21
-1.924979291e-21
-1.684604557e-21
-1.70240107e-21
-1.586699586e-21
-1.502216536e-21
-1.480836119e-21
-1.32330342e-21
-1.37140103e-21
-1.164183184e-21
-1.261796015e-21
-1.023196233e-21
-1.154564187e-21
-8.98626562e-22
-1.051527905e-21
-7.887860389e-22
-9.539227955e-22
-6.920678879e-22
-8.625195985e-22
-6.069775949e-22
-7.777300093e-22
-5.321478645e-22
-6.996956033e-22
-4.6634275e-22
-6.283606102e-22
-4.084547705e-22
-5.63530187e-22
-3.574977634e-22
-5.049161974e-22
-3.125973912e-22
-4.521725408e-22
-2.729806032e-22
-4.049219422e-22
-2.37964895e-22
-3.627758953e-22
-2.069478884e-22
-3.253492052e-22
-1.793975312e-22
-2.922703363e-22
-1.548430626e-22
-2.631885509e-22
-1.328667955e-22
-2.377786295e-22
-1.13096701e-22
-2.157438039e-22
-9.519974477e-23
-1.968173972e-22
-7.887590469e-23
-1.807635558e-22
-6.385278827e-23
-1.673773718e-22
-4.988076514e-23
-1.564846209e-22
-3.672853124e-23
-1.479412922e-22
-2.417902422e-23
-1.416330359e-22
-1.202561631e-23
-1.374746288e-22
-1.354095247e-22
-7.12472913e-21
-6.696590884e-21
-8.954098517e-21
-1.067226157e-20
-9.07630034e-21
-1.411865748e-20
-6.854506959e-21
-1.614168545e-20
-2.668481476e-21
-1.410176821e-20
-2.456621158e-23
-6.758496854e-21
1.801448482e-22
-7.165367973e-22
1.450120358e-18
-5.740225638e-19
-5.406425957e-21
-1.833777028e-24
-5.302936222e-21
-4.949945405e-22
-5.107108314e-21
-9.564824075e-22
-4.835813649e-21
-1.360526482e-21
-4.509342463e-21
-1.690955431e-21
-4.148496679e-21
-1.940440794e-21
-3.772280847e-21
-2.109473047e-21
-3.396491137e-21
-2.204374852e-21
-3.033161523e-21
-2.235070674e-21
-2.690646723e-21
-2.213114694e-21
-2.374085725e-21
-2.150203027e-21
-2.086031768e-21
-2.057199172e-21
-1.82710161e-21
-1.943596948e-21
-1.596559518e-21
-1.817308622e-21
-1.392798442e-21
-1.684668737e-21
-1.213711112e-21
-1.550564384e-21
-1.056960462e-21
-1.418627049e-21
-9.201661255e-22
-1.291443139e-21
-8.010253054e-22
-1.170757435e-21
-6.973849008e-22
-1.057655866e-21
-6.072790078e-22
-9.527219668e-22
-5.28942912e-22
-8.561662396e-22
-4.608118994e-22
-7.679302551e-22
-4.015108885e-22
-6.877686061e-22
-3.498390529e-22
-6.153121908e-22
-3.047522228e-22
-5.501162128e-22
-2.653448524e-22
-4.916959446e-22
-2.308326326e-22
-4.395528715e-22
-2.005363492e-22
-3.931933896e-22
-1.738672678e-22
-3.521418221e-22
-1.503141214e-22
-3.159491637e-22
-1.294316588e-22
-2.841986592e-22
-1.108306379e-22
-2.565090785e-22
-9.41691162e-23
-2.325363519e-22
-7.914487992e-23
-2.11974073e-22
-6.548885035e-23
-1.945532518e-22
-5.29593181e-23
-1.800416102e-22
-4.133686526e-23
-1.682426318e-22
-3.041984922e-23
-1.589945294e-22
-2.002033462e-23
-1.521692456e-22
-9.960371393e-24
-1.476715714e-22
-1.454384428e-22
-1.709932599e-21
-1.466892099e-21
-4.67343903e-21
-6.178049047e-21
-6.888014383e-21
-1.106654264e-20
-7.436607041e-21
-1.500503708e-20
-4.77439438e-21
-1.65983276e-20
-5.057747621e-22
-1.120168959e-20
-4.509952742e-23
-1.346907673e-21
3.821812525e-19
-3.936132252e-19
-5.900677195e-21
-4.782697074e-24
-5.764310649e-21
-6.31366029e-22
-5.51107165e-21
-1.209731905e-21
-5.166205965e-21
-1.705408284e-21
-4.758830222e-21
-2.098352682e-21
-4.317560452e-21
-2.38173739e-21
-3.867232169e-21
-2.559833423e-21
-3.427244631e-21
-2.644399696e-21
-3.011263938e-21
-2.65109382e-21
-2.627789303e-21
-2.596636857e-21
-2.281129285e-21
-2.49691557e-21
-1.972469066e-21
-2.365916825e-21
-1.700844928e-21
-2.215283332e-21
-1.463944049e-21
-2.054276457e-21
-1.258712235e-21
-1.889972108e-21
-1.081786701e-21
-1.727565958e-21
-9.297852724e-22
-1.570708879e-21
-7.994858505e-22
-1.421827193e-21
-6.879266543e-22
-1.28240536e-21
-5.924520561e-22
-1.153223148e-21
-5.10722991e-22
-1.034547526e-21
-4.407057034e-22
-9.262836807e-22
-3.806484081e-22
-8.280912089e-22
-3.290522525e-22
-7.394717663e-22
-2.846406544e-22
-6.598339771e-22
-2.463294651e-22
-5.885406078e-22
-2.131993142e-22
-5.249421494e-22
-1.844707748e-22
-4.68400141e-22
-1.594825391e-22
-4.18302857e-22
-1.376725278e-22
-3.740753896e-22
-1.185617127e-22
-3.351856806e-22
-1.017403595e-22
-3.011476789e-22
-8.685638085e-23
-2.715225058e-22
-7.360549361e-23
-2.459182861e-22
-6.172289855e-23
-2.239891279e-22
-5.097622708e-23
-2.054336099e-22
-4.115953151e-23
-1.899930318e-22
-3.20881232e-23
-1.774496176e-22
-2.359408984e-23
-1.676248031e-22
-1.552234546e-23
-1.603777041e-22
-7.727085889e-24
-1.556038293e-22
-1.532340845e-22
8.217467048e-22
-1.023042874e-22
-1.050949273e-21
-1.998966996e-21
-4.100380261e-21
-6.954719954e-21
-6.12705561e-21
-1.257254363e-20
-6.348072335e-21
-1.621064261e-20
-1.261934307e-21
-1.678100287e-20
7.64498945e-21
-1.057538226e-20
-1.095044205e-18
-7.528329196e-19
-6.529365343e-21
-1.541810573e-23
-6.342501015e-21
-8.182353006e-22
-6.006647909e-21
-1.545595512e-21
-5.559116203e-21
-2.15295611e-21
-5.042236166e-21
-2.615254234e-21
-4.495715122e-21
-2.928285265e-21
-3.951876573e-21
-3.103704071e-21
-3.434022223e-21
-3.162291359e-21
-2.956886299e-21
-3.128272207e-21
-2.528137868e-21
-3.025432828e-21
-2.150188694e-21
-2.87491728e-21
-1.821881838e-21
-2.694281126e-21
-1.539873406e-21
-2.497354022e-21
-1.299665662e-21
-2.294551172e-21
-1.096324329e-21
-2.093385012e-21
-9.249417499e-22
-1.899024591e-21
-7.809110075e-22
-1.714820037e-21
-6.600679176e-22
-1.54275493e-21
-5.5874578e-22
-1.383816241e-21
-4.737759638e-22
-1.238285664e-21
-4.024574482e-22
-1.105962552e-21
-3.425107443e-22
-9.863305558e-22
-2.920260128e-22
-8.786796169e-22
-2.494112813e-22
-7.821935208e-22
-2.133440415e-22
-6.960114238e-22
-1.82727818e-22
-6.192700558e-22
-1.566542505e-22
-5.511317899e-22
-1.343706193e-22
-4.908025215e-22
-1.152524141e-22
-4.375423133e-22
-9.8780391e-23
-3.906709885e-22
-8.452151873e-23
-3.495702742e-22
-7.211322902e-23
-3.136836546e-22
-6.125043332e-23
-2.825147696e-22
-5.167482983e-23
-2.556249557e-22
-4.316608827e-23
-2.326303485e-22
-3.553456118e-23
-2.131988425e-22
-2.861522531e-23
-1.970471125e-22
-2.226260496e-23
-1.83937834e-22
-1.634646881e-23
-1.736771979e-22
-1.074812557e-23
-1.661127795e-22
-5.357169336e-24
-1.611318017e-22
-1.58659818e-22
3.229280824e-22
-5.406731404e-24
4.064609876e-22
-3.781146381e-22
-2.111472977e-21
-3.070643881e-21
-4.91674262e-21
-9.324076827e-21
-6.78811753e-21
-1.4287226e-20
-2.308583536e-21
-2.211498944e-20
2.293842005e-18
-2.307103102e-18
-5.784218654e-18
-2.259128142e-16
-7.3353156e-21
-9.951282832e-23
-7.06961423e-21
-1.083941615e-21
-6.613883361e-21
-2.001336883e-21
-6.021393194e-21
-2.7454624e-21
-5.35532523e-21
-3.281343717e-21
-4.671237571e-21
-3.612399761e-21
-4.010584757e-21
-3.764388992e-21
-3.400121821e-21
-3.772791614e-21
-2.854152507e-21
-3.674283991e-21
-2.377710006e-21
-3.501922877e-21
-1.969621627e-21
-3.283058204e-21
-1.625006771e-21
-3.038953438e-21
-1.337108096e-21
-2.785314967e-21
-1.098525336e-21
-2.533200913e-21
-9.019806549e-22
-2.290001276e-21
-7.407471138e-22
-2.060334201e-21
-6.088508386e-22
-1.846796742e-21
-5.011306421e-22
-1.650559789e-21
-4.132142053e-22
-1.471821437e-21
-3.414502761e-22
-1.310142309e-21
-2.828219074e-22
-1.164687448e-21
-2.348557301e-22
-1.034396921e-21
-1.955356181e-22
-9.181034221e-22
-1.63224873e-22
-8.146113058e-22
-1.365984901e-22
-7.227480308e-22
-1.145855857e-22
-6.413962022e-22
-9.632128626e-23
-5.6951218e-22
-8.110701369e-23
-5.061355612e-22
-6.83780011e-23
-4.503925948e-22
-5.76768969e-23
-4.014956864e-22
-4.863241969e-23
-3.587404908e-22
-4.094215286e-23
-3.215016254e-22
-3.435870196e-23
-2.892277065e-22
-2.867856363e-23
-2.614361781e-22
-2.373316701e-23
-2.377082419e-22
-1.938164565e-23
-2.17684087e-22
-1.550497871e-23
-2.010585416e-22
-1.200120746e-23
-1.875772185e-22
-8.78148699e-24
-1.770331941e-22
-5.766775952e-24
-1.692642396e-22
-2.885000756e-24
-1.641506099e-22
-1.616133907e-22
4.342029516e-23
-2.702853957e-25
2.6762764e-22
-5.450433729e-23
-1.020629055e-21
-8.641201952e-22
-4.164572722e-21
-5.688912086e-21
-5.653557134e-21
-1.261389685e-20
1.626823337e-19
-1.902719507e-19
1.869139871e-17
-2.08369633e-17
7.575870492e-19
-1.075176198e-15
-8.330677358e-21
-8.280334753e-23
-7.986493018e-21
-1.4281309e-21
-7.357833568e-21
-2.630006836e-21
-6.557291159e-21
-3.546020934e-21
-5.68650959e-21
-4.152146809e-21
-4.823403788e-21
-4.475532407e-21
-4.019170442e-21
-4.56865445e-21
-3.301779256e-21
-4.490220126e-21
-2.681927994e-21
-4.294177731e-21
-2.158951558e-21
-4.024946868e-21
-1.725595339e-21
-3.716466977e-21
-1.371423562e-21
-3.39318268e-21
-1.08503098e-21
-3.071769829e-21
-8.553487867e-22
-2.7629501e-21
-6.723265684e-22
-2.473095089e-21
-5.272155165e-22
-2.205521333e-21
-4.12614884e-22
-1.961477817e-21
-3.22390103e-22
-1.740869245e-21
-2.515309112e-22
-1.542769402e-21
-1.959901238e-22
-1.365775827e-21
-1.525255516e-22
-1.208248561e-21
-1.185562608e-22
-1.068466414e-21
-9.203764586e-23
-9.447257453e-22
-7.135601721e-23
-8.353999899e-22
-5.524144872e-23
-7.389728391e-22
-4.269676651e-23
-6.540541423e-22
-3.294030306e-23
-5.793847503e-22
-2.536011318e-23
-5.138345345e-22
-1.947757438e-23
-4.56396419e-22
-1.491857736e-23
-4.061782936e-22
-1.13908e-23
-3.62394024e-22
-8.665823482e-24
-3.243543224e-22
-6.565081498e-24
-2.91457951e-22
-4.948830005e-24
-2.6318353e-22
-3.707487699e-24
-2.390820971e-22
-2.754829541e-24
-2.187704843e-22
-2.02262196e-24
-2.019255274e-22
-1.456372669e-24
-1.882790969e-22
-1.01193426e-24
-1.776139239e-22
-6.527520598e-25
-1.697601864e-22
-3.475858189e-25
-1.645928245e-22
-1.620295555e-22
4.633000908e-24
-5.93282044e-27
9.803378667e-23
-3.388006848e-24
-2.931918129e-22
-9.334140756e-23
-3.26137439e-21
-2.27681747e-21
-6.309363928e-21
-9.220822437e-21
-1.482453758e-19
-4.776693124e-20
-1.560902495e-17
-5.372116547e-18
8.576048199e-18
-3.899201484e-16
-9.719677264e-21
-1.364414247e-22
-9.187906591e-21
-1.95990652e-21
-8.273726964e-21
-3.544196969e-21
-7.163551896e-21
-4.656212131e-21
-6.010156772e-21
-5.305563458e-21
-4.916818762e-21
-5.568897265e-21
-3.941005452e-21
-5.544499879e-21
-3.105958707e-21
-5.325304203e-21
-2.412866684e-21
-4.987312237e-21
-1.850593814e-21
-4.587267301e-21
-1.402394388e-21
-4.164718966e-21
-1.05006431e-21
-3.745570231e-21
-7.762431136e-22
-3.345653314e-21
-5.655103695e-22
-2.973749846e-21
-4.04759071e-22
-2.633917992e-21
-2.83171539e-22
-2.327184956e-21
-1.920016955e-22
-2.052728114e-21
-1.242832616e-22
-1.808672366e-21
-7.452914838e-23
-1.592612301e-21
-3.845426402e-23
-1.401943454e-21
-1.273489603e-23
-1.234064484e-21
5.192531405e-24
-1.086494057e-21
1.72956831e-23
-9.56932619e-22
2.507807724e-23
-8.432894533e-22
2.968353753e-23
-7.436885532e-22
3.197827068e-23
-6.564621477e-22
3.261494322e-23
-5.80137544e-22
3.208245873e-23
-5.134208481e-22
3.074447797e-23
-4.551797382e-22
2.88691355e-23
-4.04426576e-22
2.6651905e-23
-3.60302564e-22
2.423315242e-23
-3.22063305e-22
2.171158226e-23
-2.89065898e-22
1.915451691e-23
-2.607575796e-22
1.660573943e-23
-2.366658472e-22
1.409146685e-23
-2.163899654e-22
1.162489384e-23
-1.995937469e-22
9.209648644e-24
-1.85999495e-22
6.84242803e-24
-1.753830088e-22
4.515020844e-24
-1.675695578e-22
2.215887154e-24
-1.624307531e-22
-1.598822534e-22
5.872930228e-25
1.864319622e-27
3.969465699e-23
2.015248335e-24
1.31142228e-22
5.656804762e-23
-1.83806014e-21
4.481194382e-23
-5.301246384e-21
-5.027167302e-21
-2.611840311e-20
-2.628768777e-20
-1.780396216e-18
-3.615877439e-18
5.683397878e-25
-2.919286726e-16
-1.167245984e-20
-4.658017796e-22
-1.077191464e-20
-2.860456673e-21
-9.385789547e-21
-4.930332568e-21
-7.813284838e-21
-6.228732974e-21
-6.273980765e-21
-6.844889057e-21
-4.892885245e-21
-6.950019636e-21
-3.722189334e-21
-6.715227912e-21
-2.768250226e-21
-6.27928065e-21
-2.013019393e-21
-5.742585559e-21
-1.428174963e-21
-5.1721593e-21
-9.833248182e-22
-4.609621679e-21
-6.501913219e-22
-4.078761208e-21
-4.043599631e-22
-3.59154697e-21
-2.256836799e-22
-3.15249314e-21
-9.802194758e-23
-2.761651339e-21
-8.705346072e-24
-2.416577658e-21
5.206605857e-23
-2.113579983e-21
9.17898072e-23
-1.848480812e-21
1.16152689e-22
-1.617063978e-21
1.294370983e-22
-1.415320617e-21
1.348470164e-22
-1.239570968e-21
1.347644122e-22
-1.08651168e-21
1.309482196e-22
-9.532201603e-22
1.246873082e-22
-8.371356234e-22
1.169172996e-22
-7.360288108e-22
1.083093378e-22
-6.479674706e-22
9.933729559e-23
-5.712816357e-22
9.032850227e-23
-5.045308655e-22
8.150193025e-23
-4.46474479e-22
7.299686608e-23
-3.960451496e-22
6.489437565e-23
-3.523258571e-22
5.723332077e-23
-3.145299982e-22
5.0022261e-23
-2.819843682e-22
4.324825121e-23
-2.541146977e-22
3.688330061e-23
-2.304334369e-22
3.088907265e-23
-2.105295038e-22
2.522026566e-23
-1.94059745e-22
1.982700772e-23
-1.807418929e-22
1.465652044e-23
-1.703488394e-22
9.654246874e-24
-1.627040751e-22
4.7645957e-24
-1.576781763e-22
-1.551862479e-22
7.789424168e-26
2.925705856e-28
1.608221732e-23
8.968116935e-25
1.697906839e-22
3.093099568e-23
-3.911792838e-23
6.060110433e-22
-3.278201207e-21
-1.069309348e-21
-1.650025109e-20
-1.234525008e-20
-9.125949109e-19
-2.718562196e-18
2.078032302e-25
-2.692097259e-16
-1.436774373e-20
-9.467959496e-22
-1.284158091e-20
-4.386624438e-21
-1.068463282e-20
-7.087291169e-21
-8.430293892e-21
-8.483088039e-21
-6.379965087e-21
-8.895239393e-21
-4.658786474e-21
-8.671225103e-21
-3.286743734e-21
-8.087302777e-21
-2.231890099e-21
-7.334171626e-21
-1.442801234e-21
-6.531716918e-21
-8.657563325e-22
-5.749251775e-21
-4.525242538e-22
-5.022906332e-21
-1.62999716e-22
-4.368343232e-21
3.469355437e-23
-3.789302544e-21
1.651702932e-22
-3.283036896e-21
2.47070154e-22
-2.843622821e-21
2.94313183e-22
-2.463896795e-21
3.17186282e-22
-2.136533554e-21
3.232266615e-22
-1.854605898e-21
3.179144297e-22
-1.611840552e-21
3.052032473e-22
-1.402702197e-21
2.879209029e-22
-1.222385199e-21
2.680687238e-22
-1.066759738e-21
2.470438926e-22
-9.322990732e-22
2.258037733e-22
-8.160025959e-22
2.049869823e-22
-7.153222965e-22
1.850023685e-22
-6.280961521e-22
1.660942637e-22
-5.524896754e-22
1.483902207e-22
-4.86945644e-22
1.319358407e-22
-4.301414227e-22
1.167200882e-22
-3.809530457e-22
1.026935976e-22
-3.384251609e-22
8.978181958e-23
-3.017459793e-22
7.789436713e-23
-2.702264567e-22
6.693156561e-23
-2.432830348e-22
5.678894791e-23
-2.204233703e-22
4.736024158e-23
-2.012345745e-22
3.853925225e-23
-1.853735713e-22
3.022094298e-23
-1.725592499e-22
2.23019313e-23
-1.62566156e-22
1.468056972e-23
-1.552195147e-22
7.256734145e-24
-1.503914254e-22
-1.479981081e-22
4.178658495e-27
6.232558611e-30
3.301155388e-24
9.070804792e-26
6.350784119e-23
4.570566131e-24
6.77695553e-22
1.693202575e-22
-4.164575083e-22
5.736955118e-22
-1.046715313e-20
-1.893241876e-21
-9.696819896e-19
-1.758662518e-18
4.484753849e-26
-2.576453488e-16
-1.839170366e-20
-2.031251029e-21
-1.554299987e-20
-7.235333176e-21
-1.208202822e-20
-1.054827333e-20
-8.844178126e-21
-1.172095427e-20
-6.157330238e-21
-1.158210882e-20
-4.075817065e-21
-1.075276513e-20
-2.534211958e-21
-9.628940014e-21
-1.429782088e-21
-8.438638841e-21
-6.605169144e-22
-7.301024588e-21
-1.394893634e-22
-6.270326904e-21
2.02020012e-22
-5.364468287e-21
4.160546021e-22
-4.582435314e-21
5.409887354e-22
-3.914298986e-21
6.046201193e-22
-3.346735303e-21
6.268327534e-22
-2.865907083e-21
6.217110186e-22
-2.458851175e-21
5.991452703e-22
-2.114048285e-21
5.660196567e-22
-1.821564998e-21
5.270767894e-22
-1.572986497e-21
4.855408764e-22
-1.361259055e-21
4.435639818e-22
-1.180504888e-21
4.025443789e-22
-1.025840381e-21
3.633530991e-22
-8.932115457e-22
3.264948735e-22
-7.792514705e-22
2.922222914e-22
-6.811599996e-22
2.606166246e-22
-5.966037893e-22
2.316449027e-22
-5.236341067e-22
2.05200057e-22
-4.606196287e-22
1.811289904e-22
-4.061916886e-22
1.592520285e-22
-3.591997413e-22
1.393762214e-22
-3.186751571e-22
1.213042574e-22
-2.838017831e-22
1.048402486e-22
-2.538919976e-22
8.979329283e-23
-2.283672266e-22
7.597945753e-23
-2.067420947e-22
6.322264908e-23
-1.886115518e-22
5.135469993e-23
-1.736404465e-22
4.021491002e-23
-1.615551348e-22
2.964921159e-23
-1.521367943e-22
1.95090775e-23
-1.452161901e-22
9.650258542e-24
-1.406696993e-22
-1.384164469e-22
7.96052627e-29
3.242287562e-32
3.317579544e-25
3.907444923e-27
9.594259258e-24
2.731562254e-25
2.07215134e-22
1.096726957e-23
7.246490224e-22
3.914876246e-22
-1.04172476e-21
-7.01973343e-23
-1.02435239e-18
-7.351442318e-19
-2.338624097e-17
-2.208867097e-16
-2.457395467e-20
-5.515631907e-21
-1.886003952e-20
-1.294925328e-20
-1.325884089e-20
-1.614948246e-20
-8.708433956e-21
-1.627137734e-20
-5.329966119e-21
-1.496059819e-20
-2.953132435e-21
-1.312962568e-20
-1.344507216e-21
-1.123759736e-20
-2.924395107e-22
-9.490743893e-21
3.70090759e-22
-7.963597358e-21
7.663740335e-22
-6.66665776e-21
9.841024232e-22
-5.582249258e-21
1.084257401e-21
-4.682647787e-21
1.108621495e-21
-3.938725393e-21
1.085513074e-21
-3.323693909e-21
1.033946195e-21
-2.814411837e-21
9.665635285e-22
-2.391544629e-21
8.916705933e-22
-2.039235834e-21
8.146333959e-22
-1.744612519e-21
7.388335955e-22
-1.497275515e-21
6.663194422e-22
-1.288837679e-21
5.982487424e-22
-1.112530777e-21
5.351900349e-22
-9.628819247e-22
4.773271638e-22
-8.354524331e-22
4.245980017e-22
-7.266294149e-22