/*--------------------------------*- C++ -*----------------------------------*\
  =========                 |
  \\      /  F ield         | OpenFOAM: The Open Source CFD Toolbox
   \\    /   O peration     | Website:  https://openfoam.org
    \\  /    A nd           | Version:  6
     \\/     M anipulation  |
\*---------------------------------------------------------------------------*/
FoamFile
{
    version     2.0;
    format      ascii;
    class       volVectorField;
    location    "0.05";
    object      gradT;
}
// * * * * * * * * * * * * * * * * * * * * * * * * * * * * * * * * * * * * * //

dimensions      [0 -1 0 1 0 0 0];

internalField   nonuniform List<vector> 
2500
(
(0 -17.62663938 2236.753228)
(0 -62.50102468 2155.655151)
(0 -113.5945658 1961.492021)
(0 -154.5797344 1669.500672)
(0 -183.5253717 1308.113485)
(0 -202.7867982 899.754736)
(0 -213.2276213 462.1835278)
(0 -110.7707808 12.99764931)
(0 -3.005524587 1.924039335)
(0 -0.4267877543 0.4853936552)
(0 -0.1065289012 0.1215548983)
(0 -0.02630537639 0.03048808339)
(0 -0.006451187768 0.007782382724)
(0 -0.001589828279 0.002058307614)
(0 -0.0004008232845 0.0005685296436)
(0 -0.0001049409353 0.0001623017241)
(0 -2.854778671e-05 4.675744218e-05)
(0 -7.936510486e-06 1.325253632e-05)
(0 -2.198662244e-06 3.626430392e-06)
(0 -5.944288994e-07 9.486298435e-07)
(0 -1.557128901e-07 2.362280775e-07)
(0 -3.929291728e-08 5.538654327e-08)
(0 -9.411477192e-09 1.209374819e-08)
(0 -2.823443158e-09 3.623418719e-09)
(0 -4.705738596e-11 1.223492035e-09)
(0 0 3.764590877e-10)
(0 -1.458778965e-09 -9.882051051e-10)
(0 -3.294017017e-10 -1.929352824e-09)
(0 -2.352869298e-10 -2.164639754e-09)
(0 -9.411477192e-11 -2.964615315e-09)
(0 2.823443158e-10 -2.823443158e-09)
(0 7.058607894e-10 -2.023467596e-09)
(0 6.117460175e-10 -1.223492035e-09)
(0 -1.223492035e-09 -1.364664193e-09)
(0 -1.411721579e-09 -3.294017017e-09)
(0 1.270549421e-09 -2.823443158e-09)
(0 1.411721579e-10 -1.458778965e-09)
(0 0 -2.870500543e-09)
(0 2.070524982e-09 -1.364664193e-09)
(0 4.705738596e-11 -1.97641021e-09)
(0 -5.646886315e-10 -5.176312455e-10)
(0 -5.646886315e-10 -1.364664193e-09)
(0 -1.505836351e-09 -1.929352824e-09)
(0 7.999755613e-10 -2.635213614e-09)
(0 2.352869298e-10 -1.364664193e-09)
(0 -1.411721579e-10 -2.399926684e-09)
(0 -1.882295438e-10 -1.317606807e-09)
(0 -4.705738596e-11 -2.588156228e-09)
(0 2.164639754e-09 -1.364664193e-09)
(0 -7.529181753e-10 -5.176312455e-10)
(0 -63.47143808 2722.461962)
(0 -212.7601819 2604.161226)
(0 -372.5599127 2349.900032)
(0 -498.798802 1983.929196)
(0 -586.2205644 1542.056626)
(0 -643.143159 1053.393065)
(0 -673.5294653 538.1538795)
(0 -349.4887077 15.25726777)
(0 -9.506731069 2.367492165)
(0 -1.375696682 0.62167881)
(0 -0.3483766707 0.163907137)
(0 -0.08746713909 0.04433104633)
(0 -0.021978588 0.01258037045)
(0 -0.005624024802 0.003779285816)
(0 -0.001495182653 0.001183474246)
(0 -0.000416831219 0.0003743572695)
(0 -0.0001205014011 0.0001159919859)
(0 -3.51945013e-05 3.446327658e-05)
(0 -1.010524423e-05 9.70511528e-06)
(0 -2.795820472e-06 2.575733078e-06)
(0 -7.375304101e-07 6.433215234e-07)
(0 -1.847943547e-07 1.511953811e-07)
(0 -4.239870475e-08 3.279899801e-08)
(0 -8.093870385e-09 6.258632332e-09)
(0 -3.246959631e-09 2.070524982e-09)
(0 -2.164639754e-09 -6.117460175e-10)
(0 -7.999755613e-10 -1.270549421e-09)
(0 -8.940903332e-10 -1.882295438e-10)
(0 -7.529181753e-10 -1.364664193e-09)
(0 -5.646886315e-10 -1.082319877e-09)
(0 6.117460175e-10 -1.082319877e-09)
(0 9.411477192e-10 -1.647008509e-09)
(0 4.705738596e-11 -4.705738596e-11)
(0 -8.470329473e-10 -1.458778965e-09)
(0 0 -4.235164736e-10)
(0 5.176312455e-10 -5.646886315e-10)
(0 -2.352869298e-10 -1.882295438e-09)
(0 9.411477192e-11 4.705738596e-11)
(0 -1.129377263e-09 -2.823443158e-09)
(0 7.058607894e-10 -3.623418719e-09)
(0 1.223492035e-09 -1.97641021e-09)
(0 -8.470329473e-10 -1.599951123e-09)
(0 2.352869298e-10 3.764590877e-10)
(0 -1.882295438e-10 9.411477192e-11)
(0 -4.705738596e-11 -1.599951123e-09)
(0 2.352869298e-10 -1.411721579e-10)
(0 0 -1.035262491e-09)
(0 0 4.705738596e-11)
(0 -4.705738596e-11 -1.176434649e-09)
(0 2.588156228e-09 -2.399926684e-09)
(0 -135.9273748 3660.251353)
(0 -435.0629549 3476.02274)
(0 -733.8265967 3111.559483)
(0 -962.42314 2607.631559)
(0 -1114.061502 2006.382446)
(0 -1206.689545 1358.254486)
(0 -1251.363419 688.5919403)
(0 -646.5571681 19.79208098)
(0 -17.64111355 3.313405977)
(0 -2.630372783 0.9319940635)
(0 -0.6838766647 0.269040383)
(0 -0.177632143 0.08231670453)
(0 -0.04700294828 0.02702687167)
(0 -0.01298672458 0.009332129028)
(0 -0.003805751784 0.003257035559)
(0 -0.001172423148 0.001107903001)
(0 -0.0003684418738 0.0003588567548)
(0 -0.000114223287 0.0001094078577)
(0 -3.408625281e-05 3.126196262e-05)
(0 -9.656175599e-06 8.368450232e-06)
(0 -2.580203529e-06 2.100735824e-06)
(0 -6.499095575e-07 4.952789872e-07)
(0 -1.543011686e-07 1.096907667e-07)
(0 -3.359897357e-08 2.17875697e-08)
(0 -6.823320964e-09 3.388131789e-09)
(0 -3.341074403e-09 1.270549421e-09)
(0 -1.082319877e-09 -7.529181753e-10)
(0 -4.235164736e-10 -1.599951123e-09)
(0 -1.129377263e-09 -6.117460175e-10)
(0 1.411721579e-10 -4.235164736e-10)
(0 -1.882295438e-10 -4.705738596e-11)
(0 1.694065895e-09 -6.117460175e-10)
(0 7.999755613e-10 -1.411721579e-10)
(0 -1.599951123e-09 -3.764590877e-10)
(0 -5.176312455e-10 -1.035262491e-09)
(0 -1.411721579e-10 -1.599951123e-09)
(0 7.529181753e-10 -7.058607894e-10)
(0 -9.411477192e-10 -1.035262491e-09)
(0 -1.599951123e-09 -1.552893737e-09)
(0 9.882051051e-10 1.599951123e-09)
(0 1.317606807e-09 -9.411477192e-10)
(0 1.835238052e-09 5.176312455e-10)
(0 2.352869298e-10 1.411721579e-10)
(0 -1.270549421e-09 -9.411477192e-11)
(0 0 2.823443158e-10)
(0 4.235164736e-10 -9.411477192e-11)
(0 -4.705738596e-11 9.411477192e-11)
(0 -1.882295438e-10 9.411477192e-10)
(0 -2.352869298e-10 1.458778965e-09)
(0 2.823443158e-09 2.776385772e-09)
(0 -247.7000512 4762.64448)
(0 -761.4520526 4539.039809)
(0 -1240.951093 4087.870085)
(0 -1603.975838 3445.091084)
(0 -1835.597638 2637.27928)
(0 -1960.933665 1773.471281)
(0 -2011.99187 895.0774182)
(0 -1034.767242 26.31597712)
(0 -28.36681799 4.884611607)
(0 -4.420062276 1.517162264)
(0 -1.19805403 0.4976526261)
(0 -0.3294806505 0.176873308)
(0 -0.0949631636 0.06686486518)
(0 -0.02939386086 0.0256697247)
(0 -0.009719408679 0.009585784949)
(0 -0.003315010023 0.003390687852)
(0 -0.001118996498 0.00112202257)
(0 -0.0003627893406 0.0003459478786)
(0 -0.0001111446517 9.940303389e-05)
(0 -3.195704726e-05 2.6674291e-05)
(0 -8.610701655e-06 6.704642237e-06)
(0 -2.175745297e-06 1.582257545e-06)
(0 -5.160312944e-07 3.530245095e-07)
(0 -1.143023905e-07 7.453889936e-08)
(0 -2.362280775e-08 1.472896181e-08)
(0 -6.446861876e-09 4.42339428e-09)
(0 -3.670476105e-09 1.035262491e-09)
(0 -7.058607894e-10 -1.882295438e-09)
(0 3.764590877e-10 1.129377263e-09)
(0 0 2.352869298e-10)
(0 4.705738596e-10 4.705738596e-10)
(0 7.999755613e-10 1.223492035e-09)
(0 2.823443158e-10 -3.764590877e-10)
(0 -1.788180666e-09 9.411477192e-11)
(0 -1.223492035e-09 -4.235164736e-10)
(0 9.411477192e-10 -7.999755613e-10)
(0 3.294017017e-10 -9.882051051e-10)
(0 -7.999755613e-10 -9.411477192e-10)
(0 1.458778965e-09 1.411721579e-10)
(0 1.317606807e-09 -1.411721579e-10)
(0 2.352869298e-10 -9.411477192e-11)
(0 2.352869298e-10 -9.411477192e-10)
(0 -4.235164736e-10 -9.411477192e-10)
(0 -4.705738596e-11 1.411721579e-10)
(0 0 1.882295438e-10)
(0 4.705738596e-11 1.411721579e-10)
(0 9.882051051e-10 0)
(0 1.364664193e-09 -9.411477192e-11)
(0 1.74112328e-09 9.411477192e-11)
(0 -1.599951123e-09 1.411721579e-09)
(0 -359.532045 5465.869782)
(0 -1109.837349 5324.489105)
(0 -1827.775322 4959.815114)
(0 -2413.013945 4323.005771)
(0 -2785.681305 3356.935605)
(0 -2948.891407 2256.678742)
(0 -2998.518723 1141.098142)
(0 -1536.749975 34.74957258)
(0 -42.43992841 7.402821167)
(0 -7.017331764 2.637373097)
(0 -2.024165621 1.015125449)
(0 -0.6084199039 0.4197624203)
(0 -0.1982065316 0.1775294084)
(0 -0.07026580477 0.0730298991)
(0 -0.02608478868 0.02833005614)
(0 -0.009636185574 0.01022006708)
(0 -0.0034131818 0.003414541665)
(0 -0.001136842917 0.001057220644)
(0 -0.0003533597933 0.0003041824721)
(0 -0.0001023545673 8.161115389e-05)
(0 -2.767223699e-05 2.04929269e-05)
(0 -7.001574342e-06 4.833734686e-06)
(0 -1.661972757e-06 1.07507304e-06)
(0 -3.718945212e-07 2.27146002e-07)
(0 -7.703294081e-08 4.541037745e-08)
(0 -1.694065895e-08 9.976165823e-09)
(0 -7.293894824e-09 3.058730087e-09)
(0 -3.764590877e-10 2.399926684e-09)
(0 9.411477192e-10 6.588034034e-10)
(0 -5.176312455e-10 1.599951123e-09)
(0 7.058607894e-10 6.588034034e-10)
(0 8.940903332e-10 5.176312455e-10)
(0 -3.294017017e-10 3.764590877e-10)
(0 -1.552893737e-09 1.035262491e-09)
(0 -1.458778965e-09 4.235164736e-10)
(0 -7.999755613e-10 -8.470329473e-10)
(0 6.117460175e-10 -1.97641021e-09)
(0 1.882295438e-10 -1.129377263e-09)
(0 -7.058607894e-10 -1.882295438e-10)
(0 7.058607894e-10 -1.882295438e-09)
(0 6.117460175e-10 -1.364664193e-09)
(0 9.411477192e-10 -1.788180666e-09)
(0 1.270549421e-09 -9.411477192e-11)
(0 -9.411477192e-11 4.705738596e-11)
(0 0 -2.823443158e-10)
(0 1.882295438e-10 4.705738596e-11)
(0 -1.882295438e-10 -9.411477192e-11)
(0 -9.411477192e-11 -9.411477192e-10)
(0 1.176434649e-09 -9.411477192e-10)
(0 1.364664193e-09 -1.411721579e-09)
(0 -389.0807286 5363.53974)
(0 -1267.506721 5394.446659)
(0 -2242.434427 5301.86974)
(0 -3206.855347 4920.899251)
(0 -3901.924667 4045.4563)
(0 -4176.771127 2759.537281)
(0 -4233.92104 1413.096064)
(0 -2168.462563 45.54458298)
(0 -60.47901747 11.7304821)
(0 -10.80775799 4.978889605)
(0 -3.415664707 2.268051353)
(0 -1.167076691 1.062723733)
(0 -0.4416956848 0.4844851127)
(0 -0.1785932131 0.2073492864)
(0 -0.07252924061 0.08200171208)
(0 -0.02823052454 0.02983865414)
(0 -0.01028184298 0.01000123122)
(0 -0.003473148533 0.00309808465)
(0 -0.001086754047 0.000890578817)
(0 -0.0003156466396 0.0002385665472)
(0 -8.538812086e-05 5.979214986e-05)
(0 -2.159364621e-05 1.407542883e-05)
(0 -5.122525863e-06 3.121834042e-06)
(0 -1.14401211e-06 6.553682142e-07)
(0 -2.408397013e-07 1.309136477e-07)
(0 -4.875145185e-08 2.371692252e-08)
(0 -1.134083002e-08 5.929230631e-09)
(0 -3.105787473e-09 2.117582368e-09)
(0 -3.294017017e-10 -1.882295438e-10)
(0 4.705738596e-11 1.458778965e-09)
(0 -6.588034034e-10 8.470329473e-10)
(0 5.176312455e-10 1.882295438e-10)
(0 7.999755613e-10 2.823443158e-10)
(0 -1.788180666e-09 3.764590877e-10)
(0 -3.105787473e-09 5.176312455e-10)
(0 -1.411721579e-09 9.411477192e-11)
(0 4.705738596e-11 -1.411721579e-10)
(0 9.882051051e-10 -7.999755613e-10)
(0 7.058607894e-10 -1.411721579e-10)
(0 9.411477192e-11 4.705738596e-11)
(0 2.823443158e-10 -7.058607894e-10)
(0 1.505836351e-09 -5.176312455e-10)
(0 1.458778965e-09 -5.176312455e-10)
(0 -1.882295438e-10 -9.411477192e-11)
(0 -4.705738596e-11 -1.882295438e-10)
(0 2.352869298e-10 6.117460175e-10)
(0 0 -4.705738596e-11)
(0 5.176312455e-10 9.411477192e-11)
(0 1.270549421e-09 1.74112328e-09)
(0 7.529181753e-10 1.929352824e-09)
(0 -328.625126 4654.415878)
(0 -1171.507349 4834.629081)
(0 -2301.322729 5023.429324)
(0 -3669.427385 5009.193353)
(0 -4947.043275 4522.159896)
(0 -5581.251643 3251.92191)
(0 -5712.511421 1681.868268)
(0 -2938.115557 60.30672707)
(0 -83.00562178 20.14374021)
(0 -16.47976251 10.34858273)
(0 -5.940331494 5.43698501)
(0 -2.391986145 2.771607478)
(0 -1.053580978 1.318689658)
(0 -0.4727492054 0.5755262358)
(0 -0.2035954209 0.229421246)
(0 -0.08163666639 0.08367383841)
(0 -0.03015375129 0.02803480351)
(0 -0.01024749532 0.008670230707)
(0 -0.00321287799 0.002486967931)
(0 -0.0009331411873 0.0006646388957)
(0 -0.0002521633554 0.0001661880525)
(0 -6.367189016e-05 3.902831359e-05)
(0 -1.508203337e-05 8.638277283e-06)
(0 -3.362814915e-06 1.806862449e-06)
(0 -7.086842325e-07 3.586713958e-07)
(0 -1.419721334e-07 6.630385682e-08)
(0 -2.884617759e-08 1.214080558e-08)
(0 -6.493919262e-09 1.599951123e-09)
(0 2.352869298e-10 9.411477192e-10)
(0 5.176312455e-10 1.035262491e-09)
(0 -4.705738596e-10 7.999755613e-10)
(0 2.823443158e-10 3.764590877e-10)
(0 -9.411477192e-11 -1.882295438e-10)
(0 -1.364664193e-09 -8.470329473e-10)
(0 -1.694065895e-09 1.458778965e-09)
(0 -1.505836351e-09 1.929352824e-09)
(0 -2.823443158e-10 1.835238052e-09)
(0 2.352869298e-10 7.058607894e-10)
(0 4.705738596e-11 -9.411477192e-11)
(0 2.352869298e-10 -4.705738596e-11)
(0 0 -9.411477192e-11)
(0 1.176434649e-09 -1.411721579e-10)
(0 1.694065895e-09 -1.176434649e-09)
(0 1.411721579e-10 9.411477192e-11)
(0 7.529181753e-10 1.882295438e-10)
(0 3.764590877e-10 1.317606807e-09)
(0 -7.529181753e-10 1.882295438e-10)
(0 1.647008509e-09 -9.411477192e-11)
(0 3.105787473e-09 9.882051051e-10)
(0 -2.352869298e-09 1.082319877e-09)
(0 -208.8675256 3788.385187)
(0 -898.4932752 4072.682304)
(0 -2067.870155 4466.180358)
(0 -3708.124775 4754.863494)
(0 -5659.19611 4695.553896)
(0 -7017.062755 3755.426495)
(0 -7425.536222 1958.600609)
(0 -3830.187091 85.50854636)
(0 -110.4371618 38.67227886)
(0 -25.51451319 23.3916694)
(0 -10.99263996 13.52580884)
(0 -5.285372044 7.226216476)
(0 -2.637776927 3.508157609)
(0 -1.267861625 1.54220329)
(0 -0.564381638 0.6155527613)
(0 -0.229616967 0.2241952655)
(0 -0.08528545068 0.07493054368)
(0 -0.02902098406 0.02310725856)
(0 -0.009092345812 0.006608773448)
(0 -0.002636426518 0.001761208502)
(0 -0.0007109988442 0.0004392019239)
(0 -0.0001791433273 0.000102884104)
(0 -4.234397701e-05 2.271888242e-05)
(0 -9.42357094e-06 4.742913931e-06)
(0 -1.981351236e-06 9.390301368e-07)
(0 -3.953290994e-07 1.769828286e-07)
(0 -7.60917931e-08 3.2187252e-08)
(0 -1.430544533e-08 7.011550508e-09)
(0 -8.940903332e-10 9.411477192e-10)
(0 -9.411477192e-11 2.352869298e-10)
(0 -1.317606807e-09 -3.764590877e-10)
(0 -4.705738596e-10 -4.235164736e-10)
(0 -4.705738596e-10 -1.552893737e-09)
(0 -1.411721579e-10 4.705738596e-11)
(0 -2.823443158e-10 5.176312455e-10)
(0 -1.082319877e-09 1.694065895e-09)
(0 -1.035262491e-09 1.458778965e-09)
(0 -9.882051051e-10 9.411477192e-11)
(0 -9.411477192e-11 0)
(0 1.411721579e-10 0)
(0 1.411721579e-10 -9.411477192e-11)
(0 3.764590877e-10 2.352869298e-10)
(0 1.74112328e-09 -2.352869298e-10)
(0 1.176434649e-09 0)
(0 1.176434649e-09 1.411721579e-10)
(0 1.882295438e-10 7.529181753e-10)
(0 -1.364664193e-09 1.364664193e-09)
(0 1.317606807e-09 0)
(0 2.399926684e-09 -3.764590877e-10)
(0 -1.270549421e-09 -2.588156228e-09)
(0 -44.32800866 3021.682343)
(0 -493.7121778 3370.85781)
(0 -1619.14154 3922.413425)
(0 -3440.053847 4466.127444)
(0 -5946.480274 4745.06049)
(0 -8318.20493 4240.745925)
(0 -9382.429369 2385.207875)
(0 -4858.043886 139.6239837)
(0 -145.1224987 82.62896859)
(0 -41.62623253 55.55098005)
(0 -22.10578442 33.80281767)
(0 -12.40963737 18.43422058)
(0 -6.737594164 9.005003511)
(0 -3.365354054 3.958376854)
(0 -1.521603445 1.57579272)
(0 -0.622258884 0.5719027934)
(0 -0.2312417583 0.1904296155)
(0 -0.07856926555 0.05851333034)
(0 -0.024558928 0.01667861862)
(0 -0.007102712758 0.004430971178)
(0 -0.001910487707 0.001101828552)
(0 -0.0004801549316 0.0002574342532)
(0 -0.0001132232235 5.670932639e-05)
(0 -2.514271426e-05 1.181432143e-05)
(0 -5.274756507e-06 2.334328688e-06)
(0 -1.048673846e-06 4.387630667e-07)
(0 -1.987703983e-07 7.900935102e-08)
(0 -3.778708092e-08 1.43995601e-08)
(0 -6.493919262e-09 7.999755613e-10)
(0 -8.470329473e-10 -2.164639754e-09)
(0 -1.176434649e-09 -2.117582368e-09)
(0 -8.470329473e-10 -1.176434649e-09)
(0 4.235164736e-10 -1.505836351e-09)
(0 7.529181753e-10 2.352869298e-10)
(0 -1.411721579e-10 -7.529181753e-10)
(0 -5.646886315e-10 2.823443158e-10)
(0 -1.929352824e-09 5.646886315e-10)
(0 -1.176434649e-09 8.470329473e-10)
(0 0 1.882295438e-10)
(0 9.411477192e-11 1.317606807e-09)
(0 2.823443158e-10 1.552893737e-09)
(0 9.882051051e-10 1.364664193e-09)
(0 1.411721579e-09 1.788180666e-09)
(0 5.646886315e-10 -9.411477192e-11)
(0 1.458778965e-09 -2.352869298e-10)
(0 1.647008509e-09 -1.317606807e-09)
(0 -1.458778965e-09 0)
(0 -9.411477192e-11 9.411477192e-11)
(0 5.176312455e-10 1.552893737e-09)
(0 6.117460175e-10 0)
(0 140.3079417 2474.523279)
(0 2.237807167 2791.958816)
(0 -972.6005204 3454.140656)
(0 -2885.47771 4257.070955)
(0 -5884.57763 4894.062027)
(0 -9376.915371 4779.926988)
(0 -11526.65816 3074.233224)
(0 -6132.765997 261.3117177)
(0 -194.5101655 188.3438361)
(0 -74.3406641 133.4601883)
(0 -48.10939942 82.83678903)
(0 -30.08318621 45.37291976)
(0 -17.11362065 22.11953448)
(0 -8.697072416 9.680926644)
(0 -3.950855698 3.834825536)
(0 -1.614980071 1.385029009)
(0 -0.5986749137 0.4591095156)
(0 -0.2027719809 0.1404967882)
(0 -0.06317470507 0.03990082939)
(0 -0.01821321654 0.0105656168)
(0 -0.004884535769 0.002619556868)
(0 -0.001224262647 0.0006104094465)
(0 -0.0002879639088 0.0001341399021)
(0 -6.379852159e-05 2.788592457e-05)
(0 -1.335681549e-05 5.499737869e-06)
(0 -2.650789608e-06 1.03041558e-06)
(0 -5.005023571e-07 1.837120348e-07)
(0 -9.246776341e-08 3.068141564e-08)
(0 -1.74112328e-08 3.905763035e-09)
(0 -3.011672701e-09 -1.882295438e-09)
(0 -2.823443158e-10 -1.647008509e-09)
(0 1.882295438e-10 -8.470329473e-10)
(0 8.940903332e-10 -9.882051051e-10)
(0 5.176312455e-10 -3.764590877e-10)
(0 -2.352869298e-10 -2.823443158e-10)
(0 2.823443158e-10 -6.588034034e-10)
(0 -5.176312455e-10 -4.705738596e-11)
(0 -1.317606807e-09 8.940903332e-10)
(0 3.294017017e-10 2.352869298e-10)
(0 1.552893737e-09 1.505836351e-09)
(0 1.411721579e-10 1.411721579e-09)
(0 7.058607894e-10 1.317606807e-09)
(0 2.352869298e-10 7.999755613e-10)
(0 -8.470329473e-10 9.411477192e-11)
(0 4.705738596e-11 9.411477192e-11)
(0 3.764590877e-10 -1.364664193e-09)
(0 -4.705738596e-11 -1.364664193e-09)
(0 2.917557929e-09 -9.411477192e-11)
(0 2.399926684e-09 2.305811912e-09)
(0 -2.917557929e-09 2.776385772e-09)
(0 273.1075288 2209.22157)
(0 485.9051995 2402.220902)
(0 -154.0294008 3069.260488)
(0 -2000.132476 4115.292631)
(0 -5423.624241 5168.494081)
(0 -10138.03373 5525.013295)
(0 -13901.04464 4094.711081)
(0 -7743.933274 533.2075727)
(0 -272.9740281 437.4699397)
(0 -147.1332796 315.3393377)
(0 -110.193053 195.95)
(0 -73.12689192 106.7913839)
(0 -42.42958728 51.70621429)
(0 -21.650063 22.47383302)
(0 -9.817501081 8.84576481)
(0 -3.997974905 3.176767539)
(0 -1.475773979 1.047806534)
(0 -0.4977779518 0.3192557702)
(0 -0.1544900994 0.09032191541)
(0 -0.04438398532 0.02383637266)
(0 -0.01186569492 0.005892111059)
(0 -0.002965571898 0.001369302216)
(0 -0.0006957468395 0.0003001825943)
(0 -0.0001537828785 6.226741542e-05)
(0 -3.213021844e-05 1.225524914e-05)
(0 -6.36469968e-06 2.292965246e-06)
(0 -1.198504563e-06 4.072816755e-07)
(0 -2.176404101e-07 6.828026703e-08)
(0 -3.905763035e-08 1.148200217e-08)
(0 -6.305689718e-09 1.223492035e-09)
(0 -2.352869298e-10 4.705738596e-11)
(0 -2.352869298e-10 -6.588034034e-10)
(0 9.882051051e-10 7.058607894e-10)
(0 1.458778965e-09 -1.411721579e-10)
(0 -4.235164736e-10 2.823443158e-10)
(0 -3.294017017e-10 -2.823443158e-10)
(0 -3.294017017e-10 -3.764590877e-10)
(0 -9.411477192e-10 -4.705738596e-11)
(0 6.588034034e-10 0)
(0 1.176434649e-09 -9.411477192e-11)
(0 9.411477192e-11 -4.705738596e-11)
(0 3.764590877e-10 9.411477192e-10)
(0 2.352869298e-10 -3.764590877e-10)
(0 -1.411721579e-10 -4.705738596e-11)
(0 0 2.823443158e-10)
(0 1.882295438e-10 -4.705738596e-11)
(0 -1.882295438e-10 -1.882295438e-10)
(0 3.482246561e-09 0)
(0 3.388131789e-09 -4.705738596e-10)
(0 -4.42339428e-09 0)
(0 333.3072733 2147.657203)
(0 862.2767255 2265.886833)
(0 740.4712089 2833.4242)
(0 -786.2441173 4057.013602)
(0 -4474.856966 5554.884426)
(0 -10450.69837 6542.469506)
(0 -16518.46389 5581.240663)
(0 -9790.007138 1133.811273)
(0 -412.3784004 1004.497708)
(0 -315.8606038 720.2175778)
(0 -256.6573533 443.0667059)
(0 -174.3269719 238.9111662)
(0 -101.4311715 114.5511816)
(0 -51.5575219 49.36742684)
(0 -23.24792118 19.29059105)
(0 -9.412938348 6.885181958)
(0 -3.456186683 2.259053411)
(0 -1.160256599 0.6852108034)
(0 -0.3585941026 0.1931005067)
(0 -0.102643021 0.05078684925)
(0 -0.02735160622 0.01251640822)
(0 -0.006816191064 0.002901026387)
(0 -0.001594998709 0.0006344564766)
(0 -0.0003517258668 0.0001313216353)
(0 -7.333131272e-05 2.579525903e-05)
(0 -1.449875707e-05 4.820935077e-06)
(0 -2.725093221e-06 8.570561705e-07)
(0 -4.881733219e-07 1.457837817e-07)
(0 -8.456212257e-08 2.541098842e-08)
(0 -1.449367488e-08 4.517509052e-09)
(0 -2.164639754e-09 2.305811912e-09)
(0 7.999755613e-10 8.470329473e-10)
(0 1.364664193e-09 2.44698407e-09)
(0 1.411721579e-10 4.705738596e-11)
(0 -3.294017017e-10 -4.705738596e-11)
(0 -3.764590877e-10 2.352869298e-10)
(0 -3.294017017e-10 -9.411477192e-11)
(0 -9.411477192e-10 4.705738596e-11)
(0 2.823443158e-10 -9.411477192e-11)
(0 1.552893737e-09 -9.882051051e-10)
(0 1.270549421e-09 -5.176312455e-10)
(0 2.823443158e-10 1.035262491e-09)
(0 -7.529181753e-10 -1.411721579e-10)
(0 -1.882295438e-10 -1.411721579e-10)
(0 0 -1.882295438e-10)
(0 -9.411477192e-11 -1.411721579e-10)
(0 4.705738596e-11 0)
(0 2.682271e-09 9.411477192e-11)
(0 2.352869298e-09 -2.399926684e-09)
(0 -2.44698407e-09 -1.411721579e-09)
(0 391.3371587 2178.173637)
(0 1171.672197 2307.590614)
(0 1637.097369 2795.86532)
(0 721.3277499 4112.267902)
(0 -2938.168337 6080.834929)
(0 -10111.6775 7900.902813)
(0 -19309.70287 7732.085521)
(0 -12320.67623 2425.518204)
(0 -686.567723 2237.6748)
(0 -708.5642814 1573.089731)
(0 -591.4994646 951.3454232)
(0 -401.6424162 505.7561192)
(0 -231.9733267 239.6945476)
(0 -116.9106535 102.3237316)
(0 -52.29974596 39.67313446)
(0 -21.02951255 14.06900119)
(0 -7.675745133 4.591225975)
(0 -2.563730856 1.386249775)
(0 -0.7889140537 0.3891366263)
(0 -0.2249680838 0.102000033)
(0 -0.05975151783 0.02506361771)
(0 -0.01484752359 0.005794032973)
(0 -0.003465451498 0.001264212909)
(0 -0.0007624440961 0.0002611234582)
(0 -0.0001586309657 5.119401253e-05)
(0 -3.130290254e-05 9.551190571e-06)
(0 -5.873702915e-06 1.698677518e-06)
(0 -1.049238535e-06 2.895440958e-07)
(0 -1.802768456e-07 4.795147629e-08)
(0 -2.9504981e-08 7.811526069e-09)
(0 -3.858705649e-09 2.823443158e-09)
(0 -9.411477192e-11 1.599951123e-09)
(0 1.411721579e-10 1.411721579e-10)
(0 -9.882051051e-10 1.411721579e-10)
(0 -2.352869298e-10 0)
(0 -3.764590877e-10 2.823443158e-10)
(0 -5.176312455e-10 0)
(0 -9.411477192e-10 4.705738596e-11)
(0 -4.235164736e-10 0)
(0 7.999755613e-10 -1.082319877e-09)
(0 2.070524982e-09 -9.411477192e-10)
(0 8.470329473e-10 -6.117460175e-10)
(0 -9.411477192e-10 -4.705738596e-11)
(0 -2.352869298e-10 9.411477192e-11)
(0 0 -2.823443158e-10)
(0 4.235164736e-10 9.411477192e-11)
(0 -4.705738596e-11 1.882295438e-10)
(0 1.176434649e-09 -4.705738596e-11)
(0 1.882295438e-09 -2.823443158e-10)
(0 -6.588034034e-10 -4.235164736e-10)
(0 462.72425 2271.917549)
(0 1479.968409 2434.360658)
(0 2545.148498 2921.188395)
(0 2498.725491 4202.693767)
(0 -686.2220554 6693.779804)
(0 -8799.447779 9632.407079)
(0 -21993.84849 10846.85288)
(0 -15284.41786 5088.401902)
(0 -1264.806874 4773.034188)
(0 -1602.189981 3260.147569)
(0 -1323.990965 1929.613679)
(0 -885.9778475 1009.114999)
(0 -504.8635591 472.1930801)
(0 -251.578935 199.5571119)
(0 -111.5026516 76.75094133)
(0 -44.49484684 27.03951101)
(0 -16.1389381 8.776249922)
(0 -5.362345948 2.63784367)
(0 -1.642843845 0.7376243458)
(0 -0.4667160295 0.1927056299)
(0 -0.1235576062 0.0472157238)
(0 -0.03061559601 0.01088739855)
(0 -0.007127908271 0.002370211356)
(0 -0.001564744669 0.0004885821565)
(0 -0.0003249035803 9.561642016e-05)
(0 -6.399409208e-05 1.780867949e-05)
(0 -1.19867397e-05 3.163762173e-06)
(0 -2.138899364e-06 5.358895113e-07)
(0 -3.663888071e-07 8.663264755e-08)
(0 -5.957465062e-08 1.430544533e-08)
(0 -8.282099929e-09 1.223492035e-09)
(0 -1.882295438e-09 7.529181753e-10)
(0 -9.411477192e-11 -1.223492035e-09)
(0 0 0)
(0 -2.352869298e-10 -3.764590877e-10)
(0 -3.764590877e-10 -1.411721579e-10)
(0 -5.176312455e-10 0)
(0 -9.411477192e-10 0)
(0 -7.999755613e-10 -1.882295438e-10)
(0 5.176312455e-10 -5.176312455e-10)
(0 1.694065895e-09 -7.058607894e-10)
(0 1.176434649e-09 -2.023467596e-09)
(0 -4.705738596e-11 4.705738596e-11)
(0 -4.235164736e-10 0)
(0 0 0)
(0 4.235164736e-10 0)
(0 -4.705738596e-11 0)
(0 2.117582368e-09 0)
(0 1.929352824e-09 1.223492035e-09)
(0 -1.647008509e-09 1.411721579e-09)
(0 553.7802672 2406.328919)
(0 1820.943043 2586.475359)
(0 3405.430479 3078.343811)
(0 4493.919158 4217.324836)
(0 2491.544975 7152.008707)
(0 -5958.604424 11595.44329)
(0 -23853.70805 15182.20744)
(0 -18394.49492 10249.84929)
(0 -2514.822056 9644.420667)
(0 -3551.98479 6367.113341)
(0 -2842.532034 3679.064836)
(0 -1859.063015 1890.391769)
(0 -1041.531214 872.8754601)
(0 -512.3527923 365.1185379)
(0 -224.8173469 139.2920947)
(0 -89.00420395 48.75379328)
(0 -32.07741247 15.73987213)
(0 -10.60235643 4.709941437)
(0 -3.234052094 1.312132661)
(0 -0.9153767058 0.3417030408)
(0 -0.2415697492 0.08349102639)
(0 -0.059693036 0.01920549921)
(0 -0.01386426789 0.004172132732)
(0 -0.003037039126 0.0008583755184)
(0 -0.0006294043486 0.0001676977946)
(0 -0.0001237556076 3.118535319e-05)
(0 -2.314649289e-05 5.534042704e-06)
(0 -4.12636806e-06 9.373360709e-07)
(0 -7.018138542e-07 1.517600697e-07)
(0 -1.148670791e-07 2.428161115e-08)
(0 -1.745829019e-08 2.494041456e-09)
(0 -2.494041456e-09 4.705738596e-10)
(0 -7.058607894e-10 -3.294017017e-10)
(0 -1.411721579e-10 0)
(0 -4.235164736e-10 -3.764590877e-10)
(0 0 -1.882295438e-10)
(0 -3.294017017e-10 0)
(0 -1.129377263e-09 -7.529181753e-10)
(0 -9.411477192e-10 -1.411721579e-10)
(0 2.352869298e-10 -1.411721579e-10)
(0 5.646886315e-10 -5.646886315e-10)
(0 1.552893737e-09 -1.788180666e-09)
(0 1.129377263e-09 -3.764590877e-10)
(0 -2.352869298e-10 0)
(0 0 0)
(0 4.235164736e-10 0)
(0 -4.705738596e-11 0)
(0 2.352869298e-09 5.646886315e-10)
(0 3.341074403e-09 -8.470329473e-10)
(0 -3.294017017e-09 4.705738596e-10)
(0 642.8706899 2561.924689)
(0 2151.983302 2734.062291)
(0 4175.997975 3205.047085)
(0 6572.390387 4212.661681)
(0 6691.896396 6983.067729)
(0 -769.2490455 13282.11253)
(0 -23339.44249 20700.70613)
(0 -20822.20463 19446.06764)
(0 -5147.542819 18282.19962)
(0 -7567.545812 11642.16909)
(0 -5800.712537 6561.477853)
(0 -3692.167223 3311.451824)
(0 -2030.136791 1508.771182)
(0 -985.1623005 624.7162655)
(0 -427.8673962 236.4410082)
(0 -168.0470694 82.23432115)
(0 -60.18278994 26.41262661)
(0 -19.79008541 7.870104146)
(0 -6.011082241 2.184713828)
(0 -1.695357664 0.5672156567)
(0 -0.4460551479 0.1382303195)
(0 -0.1099344896 0.03172473855)
(0 -0.02547503192 0.006877907061)
(0 -0.005569179607 0.001412528142)
(0 -0.001152093746 0.0002755130421)
(0 -0.0002261577969 5.116017827e-05)
(0 -4.223475682e-05 9.064287798e-06)
(0 -7.52132317e-06 1.536658938e-06)
(0 -1.279396209e-06 2.494982604e-07)
(0 -2.088406789e-07 3.85399991e-08)
(0 -3.214019461e-08 6.39980449e-09)
(0 -4.65868121e-09 -1.411721579e-10)
(0 -5.176312455e-10 9.411477192e-10)
(0 -9.411477192e-11 7.999755613e-10)
(0 -4.235164736e-10 1.364664193e-09)
(0 4.705738596e-11 1.082319877e-09)
(0 -1.176434649e-09 3.764590877e-10)
(0 -1.129377263e-09 -8.470329473e-10)
(0 -1.411721579e-10 0)
(0 2.352869298e-10 -8.940903332e-10)
(0 0 -1.882295438e-10)
(0 1.458778965e-09 -2.823443158e-10)
(0 1.647008509e-09 -6.588034034e-10)
(0 -9.411477192e-11 9.411477192e-11)
(0 0 2.352869298e-10)
(0 4.235164736e-10 9.411477192e-11)
(0 5.176312455e-10 -1.882295438e-10)
(0 1.364664193e-09 1.364664193e-09)
(0 1.788180666e-09 -2.258754526e-09)
(0 -1.317606807e-09 -7.999755613e-10)
(0 725.9178699 2751.799906)
(0 2464.065439 2932.13016)
(0 4884.029868 3430.547552)
(0 8271.939802 4468.766841)
(0 11560.99582 6782.903848)
(0 7759.033976 13793.00867)
(0 -17689.75294 26833.73324)
(0 -20813.00142 34163.74539)
(0 -10318.7206 32224.35123)
(0 -15272.70656 19803.23327)
(0 -11173.2493 10890.76296)
(0 -6911.769686 5400.808139)
(0 -3728.266773 2429.103534)
(0 -1784.682966 995.9817069)
(0 -767.2992912 374.104649)
(0 -299.0325856 129.3335218)
(0 -106.4416295 41.33899627)
(0 -34.83026921 12.26858779)
(0 -10.53694058 3.394374186)
(0 -2.961860215 0.8787892514)
(0 -0.7770606673 0.2136406164)
(0 -0.1910454484 0.04892824391)
(0 -0.0441764783 0.01058788342)
(0 -0.009639433193 0.002170855988)
(0 -0.00199077236 0.0004227961662)
(0 -0.0003902043619 7.840344012e-05)
(0 -7.277001222e-05 1.387303501e-05)
(0 -1.294111054e-05 2.347504756e-06)
(0 -2.199932794e-06 3.814001132e-07)
(0 -3.57965535e-07 6.009228187e-08)
(0 -5.609240406e-08 1.011733798e-08)
(0 -7.999755613e-09 1.505836351e-09)
(0 2.823443158e-10 8.470329473e-10)
(0 2.823443158e-10 9.411477192e-11)
(0 -1.411721579e-10 8.940903332e-10)
(0 -9.411477192e-10 8.470329473e-10)
(0 -2.258754526e-09 9.882051051e-10)
(0 -1.505836351e-09 -9.411477192e-11)
(0 -1.082319877e-09 -4.705738596e-11)
(0 4.705738596e-11 0)
(0 1.223492035e-09 -9.411477192e-11)
(0 1.129377263e-09 1.411721579e-10)
(0 1.505836351e-09 -7.999755613e-10)
(0 6.117460175e-10 9.411477192e-11)
(0 0 3.294017017e-10)
(0 0 9.411477192e-11)
(0 1.270549421e-09 -1.411721579e-10)
(0 2.352869298e-10 1.223492035e-09)
(0 1.129377263e-09 9.411477192e-11)
(0 -1.882295438e-10 1.411721579e-10)
(0 823.2009435 2974.740054)
(0 2830.730948 3200.227251)
(0 5712.634656 3825.522024)
(0 9924.746682 5146.183662)
(0 16016.13823 7658.224698)
(0 19281.58034 14051.84743)
(0 -2968.705784 32314.46734)
(0 -15431.58664 54877.26796)
(0 -19508.05493 52386.91858)
(0 -28901.13408 31137.53)
(0 -20203.13767 16732.77976)
(0 -12153.82665 8161.827535)
(0 -6434.963223 3626.55063)
(0 -3040.161185 1473.386903)
(0 -1294.515581 549.5220246)
(0 -500.8127222 188.9207366)
(0 -177.247724 60.11451188)
(0 -57.7347075 17.77532732)
(0 -17.40088077 4.902903775)
(0 -4.876091233 1.266060284)
(0 -1.275916155 0.3071070768)
(0 -0.3129872227 0.07019867713)
(0 -0.07223241984 0.01516503893)
(0 -0.01573426686 0.003104650849)
(0 -0.003244546293 0.0006038502587)
(0 -0.0006350809752 0.0001118420892)
(0 -0.0001182906451 1.97698431e-05)
(0 -2.101286395e-05 3.341356747e-06)
(0 -3.566949856e-06 5.407834794e-07)
(0 -5.801234541e-07 8.465623734e-08)
(0 -9.072664013e-08 1.364664193e-08)
(0 -1.392898624e-08 2.776385772e-09)
(0 -1.882295438e-09 -5.176312455e-10)
(0 0 -5.646886315e-10)
(0 3.764590877e-10 -6.117460175e-10)
(0 0 9.411477192e-11)