/*--------------------------------*- C++ -*----------------------------------*\
  =========                 |
  \\      /  F ield         | OpenFOAM: The Open Source CFD Toolbox
   \\    /   O peration     | Website:  https://openfoam.org
    \\  /    A nd           | Version:  6
     \\/     M anipulation  |
\*---------------------------------------------------------------------------*/
FoamFile
{
    version     2.0;
    format      ascii;
    class       volVectorField;
    location    "0.05";
    object      Marangoni;
}
// * * * * * * * * * * * * * * * * * * * * * * * * * * * * * * * * * * * * * //

dimensions      [1 -2 -2 0 0 0 0];

internalField   nonuniform List<vector> 
2500
(
(-0 5.761105866e-22 -7.36117346e-20)
(-0 1.258473721e-21 -4.360677669e-20)
(-0 6.417255784e-21 -1.111418828e-19)
(-0 2.018357406e-19 -2.184180806e-18)
(-0 2.182680984e-18 -1.557649798e-17)
(-0 2.387656244e-18 -1.060138778e-17)
(-0 1.090381758e-09 -2.364361907e-09)
(-0 8.40823129e-07 -1.076805756)
(-0 2.271988194e-08 -0.1593318039)
(-0 1.992623902e-12 -2.265881615e-12)
(-0 4.921187226e-17 -5.614305182e-17)
(-0 1.584021502e-17 -1.83552118e-17)
(-0 5.492174884e-18 -6.624297404e-18)
(-0 1.920558249e-18 -2.486193791e-18)
(-0 5.035471747e-19 -7.141788606e-19)
(-0 1.058522143e-19 -1.636965204e-19)
(-0 6.649757936e-20 -1.088967469e-19)
(-0 1.405769299e-20 -2.346794028e-20)
(-0 5.458962328e-21 -9.000997518e-21)
(-0 1.658001777e-21 -2.645380933e-21)
(-0 1.50054329e-22 -2.275549166e-22)
(-0 4.351329821e-23 -6.129745153e-23)
(-0 1.128280625e-23 -1.454737456e-23)
(-0 3.949855051e-24 -5.003149731e-24)
(-0 -8.281472115e-38 -2.404640112e-24)
(-0 5.016994502e-26 -4.515295052e-25)
(-0 1.746887805e-24 1.18337561e-24)
(-0 4.124512858e-25 2.415786102e-24)
(-0 2.889873675e-25 3.323354726e-24)
(-0 3.257729292e-25 6.732640536e-24)
(-0 -9.028203584e-25 9.028203584e-24)
(-0 -4.350007905e-25 1.247002266e-24)
(-0 -0 0)
(-0 0 0)
(-0 0 0)
(-0 -0 0)
(-0 -0 0)
(-0 -0 0)
(-0 -0 0)
(-0 -0 0)
(-0 0 0)
(-0 0 0)
(-0 0 0)
(-0 -0 0)
(-0 -0 0)
(-0 0 0)
(-0 0 0)
(-0 0 0)
(-0 -0 0)
(-0 0 0)
(-0 1.36068572e-17 -5.878988185e-16)
(-0 3.835237662e-17 -4.718135365e-16)
(-0 3.566682256e-18 -2.257163693e-17)
(-0 1.449987709e-19 -5.780478985e-19)
(-0 6.391172495e-19 -1.683847204e-18)
(-0 2.950933493e-17 -4.838438715e-17)
(-0 3.09280268e-08 -2.473360658e-08)
(-0 2.652133667e-06 -1.26475491)
(-0 7.208381547e-08 -0.1961399056)
(-0 6.288338594e-11 -2.842229614e-11)
(-0 2.087036943e-16 -9.81984283e-17)
(-0 5.578132607e-17 -2.827468088e-17)
(-0 4.2917683e-17 -2.457068856e-17)
(-0 1.353652985e-17 -9.099038341e-18)
(-0 3.789724874e-18 -3.000542268e-18)
(-0 1.545524233e-18 -1.388318535e-18)
(-0 4.705902551e-19 -4.530086309e-19)
(-0 1.014629723e-19 -9.93485733e-20)
(-0 3.248085429e-20 -3.119022027e-20)
(-0 1.56518161e-20 -1.44161674e-20)
(-0 2.837683341e-21 -2.474196583e-21)
(-0 4.078789871e-22 -3.335665005e-22)
(-0 9.274224754e-23 -7.16124201e-23)
(-0 2.090800974e-23 -1.633051648e-23)
(-0 9.597567971e-24 -6.069050335e-24)
(-0 6.882584982e-24 2.050131697e-24)
(-0 1.968711239e-24 3.126776673e-24)
(-0 2.389354739e-24 3.772665377e-25)
(-0 2.958780309e-24 5.362789309e-24)
(-0 2.036171757e-24 4.242024494e-24)
(-0 -2.897281495e-24 5.125959568e-24)
(-0 -3.442304999e-24 6.024033749e-24)
(-0 -8.649990521e-27 8.649990521e-27)
(-0 0 0)
(-0 -0 0)
(-0 -0 0)
(-0 0 0)
(-0 -0 -0)
(-0 0 0)
(-0 -0 0)
(-0 -0 0)
(-0 0 0)
(-0 -0 -0)
(-0 0 -0)
(-0 -0 0)
(-0 -0 0)
(-0 -0 0)
(-0 -0 -0)
(-0 0 0)
(-0 -0 0)
(-0 1.25675075e-14 -3.411936179e-13)
(-0 2.957370045e-14 -2.376547991e-13)
(-0 7.411579156e-15 -3.154671079e-14)
(-0 7.689006876e-16 -2.089012313e-15)
(-0 5.295891984e-18 -9.557328986e-18)
(-0 2.586272944e-17 -2.915641351e-17)
(-0 3.099301945e-08 -1.70763128e-08)
(-0 4.907465475e-06 -1.642088338)
(-0 1.340002816e-07 -0.274681862)
(-0 6.565216261e-11 -2.326971437e-11)
(-0 3.130751089e-16 -1.232100544e-16)
(-0 3.115760613e-16 -1.444554096e-16)
(-0 1.010989932e-16 -5.816488457e-17)
(-0 2.525210508e-17 -1.815584604e-17)
(-0 1.099799957e-17 -9.416150547e-18)
(-0 2.507699788e-18 -2.370204313e-18)
(-0 1.275770331e-18 -1.242627845e-18)
(-0 5.008657424e-19 -4.797069563e-19)
(-0 1.045028323e-19 -9.582730005e-20)
(-0 4.286885024e-20 -3.71431389e-20)
(-0 1.634844032e-20 -1.330673702e-20)
(-0 2.700224507e-21 -2.057163433e-21)
(-0 4.357514631e-22 -3.096588209e-22)
(-0 1.087746107e-22 -7.035634392e-23)
(-0 1.928547137e-23 -9.508808798e-24)
(-0 8.819834386e-24 -3.229798507e-24)
(-0 3.34927633e-24 2.435837331e-24)
(-0 1.188386559e-24 5.050642875e-24)
(-0 5.006917583e-24 2.603597143e-24)
(-0 -5.398592068e-25 1.619577621e-24)
(-0 8.137687473e-25 4.068843737e-25)
(-0 -6.477412318e-24 2.339065559e-24)
(-0 -2.027582134e-24 2.385390745e-25)
(-0 0 0)
(-0 0 0)
(-0 0 0)
(-0 -0 0)
(-0 0 0)
(-0 0 0)
(-0 -0 -0)
(-0 -0 0)
(-0 -0 -0)
(-0 -0 -0)
(-0 0 0)
(-0 -0 -0)
(-0 -0 0)
(-0 -0 -0)
(-0 0 -0)
(-0 0 -0)
(-0 -0 -0)
(-0 5.176689004e-13 -1.003487904e-11)
(-0 1.24904304e-12 -7.490365802e-12)
(-0 7.544880992e-13 -2.495565234e-12)
(-0 2.211487048e-13 -4.764445127e-13)
(-0 5.499231494e-15 -7.920376217e-15)
(-0 6.491468828e-17 -5.882392792e-17)
(-0 3.612412464e-08 -1.609710973e-08)
(-0 7.85972897e-06 -2.185287618)
(-0 2.153777313e-07 -0.4052140086)
(-0 7.696126715e-11 -2.643036153e-11)
(-0 2.37348277e-15 -9.865301069e-16)
(-0 7.249866997e-16 -3.894772281e-16)
(-0 1.861998151e-16 -1.311999725e-16)
(-0 7.599404287e-17 -6.640190485e-17)
(-0 1.563787633e-17 -1.542750581e-17)
(-0 1.133755934e-17 -1.159733173e-17)
(-0 4.555079121e-18 -4.567071366e-18)
(-0 3.146733928e-19 -3.000152336e-19)
(-0 9.937565155e-20 -8.885732131e-20)
(-0 3.49458406e-21 -2.916143624e-21)
(-0 1.417132456e-20 -1.103145068e-20)
(-0 9.047504918e-21 -6.577219337e-21)
(-0 8.262666474e-22 -5.651079116e-22)
(-0 3.117699509e-22 -2.032605092e-22)
(-0 3.709156881e-23 -2.306095526e-23)
(-0 1.97856749e-23 -1.36301316e-23)
(-0 1.22134808e-23 -3.535481284e-24)
(-0 1.717605859e-24 4.58028229e-24)
(-0 -1.56631338e-24 -5.593976356e-24)
(-0 -2.645670289e-38 -5.937599479e-25)
(-0 -2.675908925e-24 -2.973232139e-24)
(-0 -3.702645392e-24 -5.348265566e-24)
(-0 -9.418374069e-25 1.255783209e-24)
(-0 1.840717983e-24 -4.843994691e-26)
(-0 0 0)
(-0 -0 0)
(-0 -0 0)
(-0 0 0)
(-0 -0 -0)
(-0 -0 0)
(-0 -0 0)
(-0 -0 0)
(-0 0 0)
(-0 -0 -0)
(-0 -0 -0)
(-0 -0 -0)
(-0 -0 -0)
(-0 -0 0)
(-0 -0 -0)
(-0 0 -0)
(-0 2.369500151e-12 -3.626005769e-11)
(-0 6.747574274e-12 -3.253995251e-11)
(-0 8.059675262e-12 -2.195678494e-11)
(-0 5.410321939e-12 -9.724360893e-12)
(-0 8.634761093e-13 -1.043405769e-12)
(-0 1.007482388e-14 -7.727099103e-15)
(-0 1.199771089e-07 -4.574668493e-08)
(-0 1.168176436e-05 -2.887921539)
(-0 3.220051519e-07 -0.6145287116)
(-0 2.602881455e-10 -9.789915483e-11)
(-0 7.249917445e-15 -3.638825522e-15)
(-0 2.579264487e-15 -1.78098035e-15)
(-0 6.574868562e-16 -5.892845598e-16)
(-0 3.446252595e-17 -3.583162251e-17)
(-0 1.098412117e-16 -1.193099463e-16)
(-0 2.662240449e-17 -2.823384119e-17)
(-0 2.192130438e-17 -2.192635555e-17)
(-0 7.200820765e-18 -6.694941893e-18)
(-0 1.19961308e-18 -1.032385587e-18)
(-0 4.389773728e-19 -3.499125965e-19)
(-0 8.500113091e-20 -6.292913247e-20)
(-0 1.123112732e-20 -7.75136986e-21)
(-0 1.601587201e-21 -1.035677178e-21)
(-0 7.481729572e-22 -4.568659117e-22)
(-0 7.389933554e-23 -4.357229055e-23)
(-0 5.04006079e-23 -3.001384515e-23)
(-0 1.880289059e-23 -7.814188295e-24)
(-0 1.561812739e-24 -1.137892139e-23)
(-0 -1.825947232e-24 -1.278163062e-24)
(-0 1.543775903e-24 -4.771670974e-24)
(-0 -1.944863376e-24 -1.944863376e-24)
(-0 -4.945045476e-24 -2.862921065e-24)
(-0 1.483011045e-24 -1.483011045e-24)
(-0 2.823356906e-24 -1.826877998e-24)
(-0 0 -0)
(-0 0 0)
(-0 -0 0)
(-0 -0 0)
(-0 0 0)
(-0 -0 0)
(-0 -0 0)
(-0 -0 0)
(-0 -0 0)
(-0 0 -0)
(-0 -0 0)
(-0 -0 -0)
(-0 0 0)
(-0 0 0)
(-0 -0 0)
(-0 -0 0)
(-0 2.499304876e-12 -3.461579542e-11)
(-0 9.004305018e-12 -3.847353141e-11)
(-0 1.811010174e-11 -4.296411905e-11)
(-0 2.393065887e-11 -3.684037764e-11)
(-0 1.456413622e-11 -1.514143196e-11)
(-0 1.41067668e-12 -9.343273514e-13)
(-0 3.741284401e-07 -1.252004096e-07)
(-0 1.649316158e-05 -3.78827464)
(-0 4.591289927e-07 -0.9743891225)
(-0 9.218214698e-10 -4.251798786e-10)
(-0 1.234599068e-14 -8.205006594e-15)
(-0 3.22710785e-15 -2.940744258e-15)
(-0 1.197253231e-15 -1.313827348e-15)
(-0 1.094798374e-15 -1.271276873e-15)
(-0 2.881323847e-16 -3.257481777e-16)
(-0 1.079043427e-16 -1.140319657e-16)
(-0 2.204038628e-17 -2.1433802e-17)
(-0 1.717553033e-17 -1.531654162e-17)
(-0 4.389976643e-18 -3.596451739e-18)
(-0 6.796833461e-19 -5.135469073e-19)
(-0 1.369935178e-19 -9.589779233e-20)
(-0 3.956088589e-20 -2.577875585e-20)
(-0 6.252469363e-21 -3.809272923e-21)
(-0 4.887203096e-21 -2.799274558e-21)
(-0 8.698466705e-22 -4.730865686e-22)
(-0 6.951946581e-23 -3.37762868e-23)
(-0 2.538379764e-23 -1.327604479e-23)
(-0 1.652860188e-23 -1.144287823e-23)
(-0 4.415801099e-25 2.759875687e-25)
(-0 -1.786678523e-25 -5.360035568e-24)
(-0 3.532438389e-24 -4.003430175e-24)
(-0 -1.951106557e-24 -5.321199701e-25)
(-0 -3.505978492e-24 -9.738829145e-25)
(-0 4.667631707e-24 -1.077145779e-24)
(-0 0 -0)
(-0 0 -0)
(-0 -0 0)
(-0 -0 0)
(-0 -0 0)
(-0 -0 -0)
(-0 -0 0)
(-0 -0 0)
(-0 -0 0)
(-0 0 0)
(-0 -0 0)
(-0 -0 -0)
(-0 -0 -0)
(-0 -0 -0)
(-0 -0 -0)
(-0 -0 -0)
(-0 6.27768242e-13 -8.918659485e-12)
(-0 3.167085892e-12 -1.310832579e-11)
(-0 1.083379501e-11 -2.37167322e-11)
(-0 2.9305137e-11 -4.011974555e-11)
(-0 4.745834464e-11 -4.350125575e-11)
(-0 2.239051767e-11 -1.307870328e-11)
(-0 5.839275965e-07 -1.724465498e-07)
(-0 2.2359442e-05 -5.019575452)
(-0 6.313120827e-07 -1.674134812)
(-0 1.643773399e-09 -1.033619775e-09)
(-0 1.98329898e-14 -1.81660218e-14)
(-0 6.886538235e-15 -7.983520442e-15)
(-0 5.922907425e-15 -7.414745357e-15)
(-0 1.807772012e-15 -2.20072399e-15)
(-0 3.071161523e-16 -3.460165972e-16)
(-0 1.816186354e-16 -1.861061683e-16)
(-0 6.683152077e-17 -6.211770225e-17)
(-0 3.158936439e-17 -2.671908029e-17)
(-0 1.23303439e-17 -9.541418769e-18)
(-0 1.869826012e-18 -1.331367543e-18)
(-0 2.983775234e-19 -1.965803542e-19)
(-0 5.019578835e-20 -3.075768997e-20)
(-0 2.553323235e-20 -1.461928986e-20)
(-0 4.898538154e-21 -2.63117086e-21)
(-0 4.028283556e-21 -2.038069766e-21)
(-0 5.099990356e-22 -2.380793085e-22)
(-0 1.322454188e-22 -5.564782476e-23)
(-0 1.76600918e-23 -4.285169335e-24)
(-0 -6.260585635e-25 -3.130292817e-24)
(-0 -2.006797801e-24 -4.214275382e-24)
(-0 2.073689778e-24 -3.525272622e-24)
(-0 -9.836374288e-25 -1.475456143e-24)
(-0 2.231965755e-25 8.92786302e-25)
(-0 3.624756828e-24 2.249849066e-24)
(-0 3.200496493e-25 -2.681497061e-25)
(-0 0 -0)
(-0 0 -0)
(-0 -0 -0)
(-0 -0 0)
(-0 -0 -0)
(-0 -0 0)
(-0 -0 0)
(-0 -0 0)
(-0 -0 -0)
(-0 -0 -0)
(-0 -0 -0)
(-0 0 -0)
(-0 -0 0)
(-0 -0 -0)
(-0 0 -0)
(-0 4.22910057e-14 -7.667170819e-13)
(-0 2.264729161e-13 -1.027694824e-12)
(-0 1.355122052e-12 -2.932840342e-12)
(-0 9.382140697e-12 -1.205934316e-11)
(-0 4.84001019e-11 -4.025981778e-11)
(-0 7.399269423e-11 -3.968942177e-11)
(-0 7.543515502e-07 -1.995681893e-07)
(-0 2.916674286e-05 -7.118746208)
(-0 8.405699439e-07 -3.215257655)
(-0 2.507902079e-09 -2.301920147e-09)
(-0 1.748380371e-14 -2.152345037e-14)
(-0 2.855574824e-14 -3.905069342e-14)
(-0 7.719693188e-15 -1.026682961e-14)
(-0 1.5973436e-15 -1.942668174e-15)
(-0 8.768424412e-16 -9.561120598e-16)
(-0 3.280192673e-16 -3.201822746e-16)
(-0 1.091370079e-16 -9.58563141e-17)
(-0 3.505950345e-17 -2.790619804e-17)
(-0 1.491641284e-17 -1.083837907e-17)
(-0 6.521923713e-18 -4.355356189e-18)
(-0 1.368600768e-18 -8.451303638e-19)
(-0 2.354473255e-19 -1.351737766e-19)
(-0 7.202170812e-20 -3.862859162e-20)
(-0 8.576638601e-21 -4.315177521e-21)
(-0 7.054477507e-21 -3.342182739e-21)
(-0 2.24293072e-21 -1.002706092e-21)
(-0 2.751427638e-22 -1.161484463e-22)
(-0 6.666356855e-23 -3.277439658e-23)
(-0 1.890690859e-24 -1.890690859e-24)
(-0 1.0033989e-25 -6.020393402e-25)
(-0 5.958113471e-24 1.489528368e-24)
(-0 2.534314369e-24 2.534314369e-24)
(-0 2.025280341e-24 6.683425125e-24)
(-0 3.736795905e-25 -1.245598635e-25)
(-0 6.054993364e-26 -8.649990521e-26)
(-0 0 -0)
(-0 0 -0)
(-0 0 -0)
(-0 0 -0)
(-0 -0 -0)
(-0 -0 0)
(-0 -0 -0)
(-0 -0 0)
(-0 -0 -0)
(-0 -0 -0)
(-0 -0 -0)
(-0 0 -0)
(-0 -0 -0)
(-0 -0 0)
(-0 0 0)
(-0 1.250280931e-13 -8.289645095e-12)
(-0 8.559178356e-13 -5.823126618e-12)
(-0 2.08131978e-12 -5.044846833e-12)
(-0 2.96623507e-12 -3.85709987e-12)
(-0 1.237479749e-11 -9.893763899e-12)
(-0 9.265697883e-11 -4.733107482e-11)
(-0 1.024148931e-06 -2.61043777e-07)
(-0 3.70112148e-05 -11.62244234)
(-0 1.105672601e-06 -6.871627843)
(-0 4.424468921e-09 -5.910570293e-09)
(-0 5.202428793e-14 -7.956876165e-14)
(-0 5.992091932e-14 -8.901082336e-14)
(-0 6.828186662e-15 -9.124652159e-15)
(-0 7.830940235e-15 -9.208611891e-15)
(-0 3.793416258e-15 -3.927366595e-15)
(-0 8.547059132e-16 -7.852896663e-16)
(-0 8.635325572e-16 -7.108903411e-16)
(-0 2.048881732e-16 -1.525355019e-16)
(-0 3.068671628e-17 -2.083294926e-17)
(-0 4.058739375e-18 -2.531128132e-18)
(-0 2.011781646e-18 -1.159840046e-18)
(-0 2.631936604e-19 -1.410611035e-19)
(-0 1.196452347e-19 -5.990472047e-20)
(-0 7.126186403e-20 -3.347334835e-20)
(-0 1.78447874e-20 -7.894563023e-21)
(-0 3.711900062e-21 -1.552546062e-21)
(-0 4.974119106e-22 -1.977015716e-22)
(-0 1.233937251e-22 -4.699231398e-23)
(-0 2.864718064e-23 -3.370256546e-24)
(-0 2.419238281e-24 5.984431537e-24)
(-0 5.882579689e-24 1.018138792e-23)
(-0 3.488275104e-24 5.129816329e-24)
(-0 -1.814220398e-24 6.450561416e-24)
(-0 -1.952465927e-24 -6.508219758e-25)
(-0 3.113996587e-26 1.66079818e-25)
(-0 0 -0)
(-0 0 -0)
(-0 0 -0)
(-0 -0 -0)
(-0 -0 -0)
(-0 -0 -0)
(-0 -0 -0)
(-0 -0 -0)
(-0 -0 0)
(-0 -0 0)
(-0 -0 0)
(-0 0 -0)
(-0 0 -0)
(-0 -0 -0)
(-0 -0 0)
(-0 -1.987231224e-12 -3.542520621e-11)
(-0 4.201347272e-15 -9.820087917e-12)
(-0 2.133523089e-12 -7.558345855e-12)
(-0 6.271872359e-12 -9.25750011e-12)
(-0 9.249741626e-12 -7.702116691e-12)
(-0 5.76212459e-11 -2.941521198e-11)
(-0 1.049630356e-06 -2.804453286e-07)
(-0 4.672715274e-05 -21.74862943)
(-0 1.493622807e-06 -15.66671676)
(-0 7.128607411e-09 -1.280595369e-08)
(-0 2.73825822e-13 -4.714701028e-13)
(-0 7.09041433e-14 -1.069237682e-13)
(-0 2.540306473e-14 -3.282558288e-14)
(-0 1.848444538e-14 -2.056939325e-14)
(-0 5.903803174e-15 -5.728565688e-15)
(-0 5.050525621e-16 -4.329933744e-16)
(-0 1.962902292e-15 -1.504779916e-15)
(-0 7.181978444e-16 -4.97449787e-16)
(-0 1.525093172e-16 -9.628980549e-17)
(-0 4.20063634e-17 -2.43594578e-17)
(-0 8.021622668e-18 -4.300416831e-18)
(-0 2.720386634e-18 -1.355878521e-18)
(-0 8.607126355e-19 -4.007942165e-19)
(-0 1.609488887e-19 -7.032446476e-20)
(-0 2.984879702e-20 -1.228575806e-20)
(-0 4.48246183e-21 -1.741933065e-21)
(-0 1.369199273e-21 -5.024345653e-22)
(-0 1.867255756e-22 -6.172905229e-23)
(-0 7.028290298e-23 -1.555441295e-23)
(-0 1.319497952e-23 8.168320657e-24)
(-0 5.524845846e-25 3.314907507e-24)
(-0 -7.42376838e-25 3.155101562e-24)
(-0 -4.493096842e-24 4.966054404e-24)
(-0 -1.270605584e-24 8.470703896e-25)
(-0 0 0)
(-0 -0 0)
(-0 0 -0)
(-0 0 -0)
(-0 -0 -0)
(-0 -0 -0)
(-0 -0 -0)
(-0 -0 -0)
(-0 -0 -0)
(-0 0 -0)
(-0 -0 -0)
(-0 -0 0)
(-0 -0 0)
(-0 -0 0)
(-0 -0 -0)
(-0 0 -0)
(-0 -2.417483792e-12 -1.955737706e-11)
(-0 -3.203184314e-12 -1.590735058e-11)
(-0 5.199974794e-13 -1.007815451e-11)
(-0 4.296736425e-12 -8.829834675e-12)
(-0 1.78280962e-11 -1.699800629e-11)
(-0 3.450374561e-11 -1.881889622e-11)
(-0 6.461885676e-07 -1.904949885e-07)
(-0 5.936441816e-05 -44.37423731)
(-0 2.115996697e-06 -36.3973769)
(-0 6.783743997e-09 -1.453893518e-08)
(-0 5.165227892e-13 -9.183259391e-13)
(-0 2.24313019e-13 -3.274923524e-13)
(-0 8.14019219e-14 -9.9169242e-14)
(-0 4.141897923e-14 -4.298080028e-14)
(-0 1.705833367e-14 -1.536460994e-14)
(-0 6.156304716e-15 -4.890035225e-15)
(-0 1.84709132e-15 -1.310972671e-15)
(-0 1.939618111e-15 -1.243545732e-15)
(-0 4.385290082e-16 -2.562903355e-16)
(-0 1.362168858e-16 -7.312832013e-17)
(-0 3.81185336e-17 -1.892144584e-17)
(-0 7.496045322e-18 -3.459897567e-18)
(-0 2.196800881e-18 -9.474694275e-19)
(-0 2.395493834e-19 -9.695890791e-20)
(-0 2.108968928e-20 -8.041166818e-21)
(-0 1.355906778e-20 -4.882779699e-21)
(-0 3.248841119e-21 -1.103409202e-21)
(-0 7.251380724e-22 -2.275969234e-22)
(-0 1.145907964e-22 -3.367851454e-23)
(-0 1.711966684e-23 -3.21798249e-24)
(-0 5.523003707e-25 -1.380750927e-25)
(-0 9.470282044e-25 3.314598715e-24)
(-0 -3.935431993e-24 -2.951573995e-24)
(-0 -2.574237179e-24 2.49119727e-25)
(-0 0 -0)
(-0 0 0)
(-0 0 0)
(-0 0 0)
(-0 -0 -0)
(-0 -0 0)
(-0 -0 -0)
(-0 -0 -0)
(-0 -0 0)
(-0 0 0)
(-0 -0 -0)
(-0 -0 0)
(-0 0 0)
(-0 -0 0)
(-0 -0 0)
(-0 0 -0)
(-0 -1.064196838e-12 -6.849249948e-12)
(-0 -5.679076523e-12 -1.492240254e-11)
(-0 -4.17970317e-12 -1.605698449e-11)
(-0 1.839355495e-12 -9.439541302e-12)
(-0 2.081583522e-11 -2.583325416e-11)
(-0 4.013699901e-11 -2.513304641e-11)
(-0 1.127134998e-05 -3.902722706e-06)
(-0 8.476635714e-05 -94.36140597)
(-0 3.146553545e-06 -83.59114316)
(-0 4.91968659e-09 -1.121476683e-08)
(-0 6.283761529e-13 -1.084450073e-12)
(-0 3.941111585e-13 -5.399500828e-13)
(-0 2.502294753e-13 -2.825014426e-13)
(-0 1.284337605e-13 -1.229350659e-13)
(-0 5.214696021e-14 -4.325483421e-14)
(-0 2.207155089e-14 -1.613855857e-14)
(-0 1.171014715e-14 -7.651236539e-15)
(-0 3.314692855e-16 -1.956826229e-16)
(-0 5.750052571e-16 -3.09521008e-16)
(-0 3.761978316e-16 -1.860697106e-16)
(-0 1.224765249e-16 -5.602566131e-17)
(-0 3.715165191e-17 -1.580611562e-17)
(-0 2.861786157e-18 -1.137930646e-18)
(-0 1.26944879e-18 -4.7378853e-19)
(-0 1.933539733e-19 -6.798939479e-20)
(-0 3.964542725e-20 -1.317753478e-20)
(-0 8.646030791e-21 -2.718013869e-21)
(-0 1.905375762e-21 -5.68621937e-22)
(-0 2.52661063e-22 -7.601183528e-23)
(-0 3.632272313e-23 -1.135085098e-23)
(-0 9.886503099e-24 -1.053127504e-23)
(-0 -3.171082278e-24 -3.347253515e-24)
(-0 -4.621426931e-24 -8.164520911e-24)
(-0 -2.075997725e-26 -1.037998862e-26)
(-0 0 0)
(-0 0 -0)
(-0 0 0)
(-0 0 -0)
(-0 -0 0)
(-0 -0 0)
(-0 -0 0)
(-0 -0 -0)
(-0 0 0)
(-0 0 0)
(-0 -0 0)
(-0 0 0)
(-0 -0 -0)
(-0 -0 -0)
(-0 -0 0)
(-0 0 0)
(-0 -3.402323277e-13 -1.891654358e-12)
(-0 -4.757245462e-12 -9.36258759e-12)
(-0 -1.103832273e-11 -1.88530915e-11)
(-0 -2.475806081e-12 -1.417449413e-11)
(-0 3.458737267e-12 -7.151186579e-12)
(-0 1.327969738e-10 -1.037515813e-10)
(-0 8.793480758e-05 -6.937627207e-05)
(-0 0.0001144349938 -201.888609)
(-0 5.152035825e-06 -186.2476295)
(-0 3.084332123e-08 -6.846008185e-08)
(-0 1.827754751e-12 -2.938691122e-12)
(-0 9.28099283e-13 -1.168275624e-12)
(-0 4.629524655e-13 -4.78191636e-13)
(-0 2.973821049e-13 -2.601832567e-13)
(-0 1.474678405e-13 -1.118237416e-13)
(-0 5.408290695e-14 -3.616862753e-14)
(-0 1.06219243e-14 -6.351085278e-15)
(-0 3.918199248e-15 -2.117830759e-15)
(-0 1.413756621e-15 -6.970791462e-16)
(-0 6.364633551e-16 -2.884611942e-16)
(-0 4.64150371e-16 -1.946201704e-16)
(-0 6.147192231e-17 -2.397937982e-17)
(-0 1.396372548e-17 -5.092087801e-18)
(-0 3.970281111e-18 -1.359230959e-18)
(-0 5.42355538e-19 -1.749643836e-19)
(-0 1.12249297e-19 -3.423639175e-20)
(-0 1.77040055e-20 -5.118080337e-21)
(-0 3.265628779e-21 -9.008324672e-22)
(-0 5.258449403e-22 -1.399011506e-22)
(-0 1.320386144e-22 -3.492634316e-23)
(-0 1.227396775e-23 -9.205475809e-24)
(-0 1.540087027e-25 -5.236295892e-24)
(-0 -2.092153593e-25 -2.092153593e-25)
(-0 0 -0)
(-0 0 -0)
(-0 0 -0)
(-0 0 -0)
(-0 0 -0)
(-0 0 -0)
(-0 -0 0)
(-0 -0 0)
(-0 -0 0)
(-0 0 0)
(-0 0 -0)
(-0 -0 0)
(-0 -0 -0)
(-0 -0 -0)
(-0 -0 -0)
(-0 -0 0)
(-0 0 0)
(-0 -1.204921927e-13 -5.909500071e-13)
(-0 -3.0745839e-12 -5.053015072e-12)
(-0 -1.583672899e-11 -1.816599936e-11)
(-0 -1.195127629e-11 -2.01062575e-11)
(-0 8.225022803e-13 -7.996716283e-12)
(-0 4.082050814e-10 -4.46739271e-10)
(-0 0.0001009710402 -9.921271912e-05)
(-0 7.427860005e-05 -423.59376)
(-0 9.853268937e-06 -397.3404309)
(-0 8.433385002e-08 -1.715692383e-07)
(-0 1.74538724e-12 -2.542839051e-12)
(-0 2.268903171e-12 -2.583306305e-12)
(-0 7.928166441e-13 -7.412398624e-13)
(-0 3.11230068e-13 -2.467816271e-13)
(-0 2.30109912e-13 -1.583325914e-13)
(-0 5.307061124e-14 -3.223874821e-14)
(-0 3.327022337e-14 -1.808520911e-14)
(-0 6.318960586e-15 -3.107225627e-15)
(-0 5.991898688e-15 -2.689278082e-15)
(-0 2.928547219e-15 -1.208720216e-15)
(-0 3.012677762e-16 -1.150804249e-16)
(-0 1.673875447e-16 -5.950261069e-17)
(-0 4.226565941e-17 -1.404895654e-17)
(-0 8.980646402e-18 -2.803065298e-18)
(-0 1.054110737e-18 -3.100957331e-19)
(-0 1.746696852e-19 -4.858930432e-20)
(-0 1.952903705e-20 -5.152474864e-21)
(-0 1.982806379e-21 -4.965947509e-22)
(-0 2.10513858e-22 -4.97289753e-23)
(-0 2.417745851e-23 -5.821932009e-24)
(-0 1.526083878e-24 -2.293536464e-25)
(-0 2.631327116e-24 -1.146988743e-24)
(-0 6.564881228e-26 8.862589658e-25)
(-0 0 -0)
(-0 0 0)
(-0 0 0)
(-0 0 -0)
(-0 0 -0)
(-0 0 0)
(-0 -0 0)
(-0 -0 0)
(-0 -0 0)
(-0 0 -0)
(-0 0 -0)
(-0 -0 -0)
(-0 -0 -0)
(-0 -0 -0)
(-0 -0 -0)
(-0 -0 -0)
(-0 0 -0)
(-0 -4.802277882e-14 -2.084729607e-13)
(-0 -1.807153733e-12 -2.564877025e-12)
(-0 -1.704338809e-11 -1.54032697e-11)
(-0 -2.472148404e-11 -2.320649017e-11)
(-0 -4.48118555e-12 -1.287214218e-11)
(-0 5.113823957e-11 -9.948655011e-11)
(-0 1.54370758e-05 -1.004434725e-05)
(-0 4.908850648e-05 -853.3875595)
(-0 1.968804023e-05 -802.9902044)
(-0 4.21874579e-10 -7.559376397e-10)
(-0 5.469257946e-12 -7.076175877e-12)
(-0 2.356258065e-12 -2.395076961e-12)
(-0 1.389100112e-12 -1.163727093e-12)
(-0 1.033747764e-12 -7.364023136e-13)
(-0 2.538979922e-13 -1.572497471e-13)
(-0 2.596913906e-13 -1.421962031e-13)
(-0 3.641578031e-14 -1.786170324e-14)
(-0 6.348062953e-14 -2.818933381e-14)
(-0 1.399095618e-14 -5.674243345e-15)
(-0 1.332212523e-15 -4.97109282e-16)
(-0 1.363397072e-15 -4.710301389e-16)
(-0 2.553732076e-16 -8.213082795e-17)
(-0 4.182509764e-17 -1.258134383e-17)
(-0 2.823354943e-18 -7.976665327e-19)
(-0 5.154073721e-19 -1.372705422e-19)
(-0 1.946230496e-19 -4.902421879e-20)
(-0 4.944048139e-20 -1.181609055e-20)
(-0 1.276951293e-20 -2.899646034e-21)
(-0 2.248244347e-21 -4.859708854e-22)
(-0 4.484579782e-22 -9.486253375e-23)
(-0 6.850344644e-23 -9.732730095e-24)
(-0 1.198629183e-23 -1.844044897e-24)
(-0 2.251524574e-24 1.050711468e-24)
(-0 9.341989762e-26 -0)
(-0 0 0)
(-0 -0 0)
(-0 0 -0)
(-0 0 0)
(-0 0 0)
(-0 -0 0)
(-0 -0 0)
(-0 -0 0)
(-0 -0 0)
(-0 0 -0)
(-0 -0 -0)
(-0 -0 -0)
(-0 -0 -0)
(-0 -0 -0)
(-0 -0 0)
(-0 0 -0)
(-0 -1.719521178e-14 -6.840969509e-14)
(-0 -8.456701362e-13 -1.073023604e-12)
(-0 -1.378834563e-11 -1.057699634e-11)
(-0 -3.781732484e-11 -2.425212074e-11)
(-0 -2.014725658e-11 -2.104665467e-11)
(-0 4.90171297e-12 -8.426269909e-11)
(-0 5.785880072e-06 -5.15098243e-06)
(-0 0.0001485101878 -1619.264052)
(-0 3.926216463e-05 -1522.368564)
(-0 1.12995804e-09 -1.737702253e-09)
(-0 1.057795332e-11 -1.19608016e-11)
(-0 5.589326142e-12 -5.011116909e-12)
(-0 3.663015015e-12 -2.72127855e-12)
(-0 2.503056282e-12 -1.586645048e-12)
(-0 1.085666172e-12 -5.997111501e-13)
(-0 5.299453776e-13 -2.592291691e-13)
(-0 3.739007435e-13 -1.640306131e-13)
(-0 4.090321881e-14 -1.625992798e-14)
(-0 3.574483965e-14 -1.298622251e-14)
(-0 7.487982393e-15 -2.504256352e-15)
(-0 4.826706341e-16 -1.495176278e-16)
(-0 2.497023006e-16 -7.202996644e-17)
(-0 1.276928808e-16 -3.446154737e-17)
(-0 3.189476323e-17 -8.086336589e-18)
(-0 5.938449515e-18 -1.419560806e-18)
(-0 8.612800842e-19 -1.94756275e-19)
(-0 1.824420677e-19 -3.913970779e-20)
(-0 3.534331579e-20 -7.218093974e-21)
(-0 5.141153561e-21 -1.002335608e-21)
(-0 8.271916697e-22 -1.52422091e-22)
(-0 1.409694906e-22 -2.794365641e-23)
(-0 1.613768641e-23 6.654716046e-25)
(-0 2.528461919e-24 -4.804077647e-24)
(-0 7.42892691e-26 -1.262917575e-24)
(-0 0 -0)
(-0 -0 -0)
(-0 0 -0)
(-0 0 0)
(-0 0 -0)
(-0 -0 0)
(-0 -0 0)
(-0 -0 0)
(-0 -0 0)
(-0 0 -0)
(-0 -0 -0)
(-0 -0 -0)
(-0 -0 0)
(-0 -0 -0)
(-0 -0 0)
(-0 0 0)
(-0 -3.053461615e-15 -1.15514062e-14)
(-0 -2.224928538e-13 -2.642866055e-13)
(-0 -6.253680818e-12 -4.38702182e-12)
(-0 -3.618026092e-11 -1.953534112e-11)
(-0 -3.904809674e-11 -2.292298933e-11)
(-0 -3.681659253e-11 -6.553628422e-11)
(-0 2.333138623e-06 -3.542375172e-06)
(-0 0.0001530363076 -2845.13403)
(-0 7.164177778e-05 -2683.64141)
(-0 3.167422172e-09 -4.10549866e-09)
(-0 4.993128535e-12 -4.8651029e-12)
(-0 6.365355484e-12 -4.97199395e-12)
(-0 5.282414379e-12 -3.44038656e-12)
(-0 2.500214222e-12 -1.394763602e-12)
(-0 2.811108225e-12 -1.370050889e-12)
(-0 1.320556267e-12 -5.709242213e-13)
(-0 1.006261683e-13 -3.906491322e-14)
(-0 2.667688168e-13 -9.39288955e-14)
(-0 4.630537861e-14 -1.491084378e-14)
(-0 8.172059956e-15 -2.423688179e-15)
(-0 2.152612438e-15 -5.915880377e-16)
(-0 7.02638882e-16 -1.798786144e-16)
(-0 1.581454734e-16 -3.788777921e-17)
(-0 3.38432536e-17 -7.618613721e-18)
(-0 8.920670621e-18 -1.893788188e-18)
(-0 1.594270553e-18 -3.202061259e-19)
(-0 2.393132922e-19 -4.560459014e-20)
(-0 5.178666285e-20 -9.390343209e-21)
(-0 1.047579361e-20 -1.815493033e-21)
(-0 1.584029356e-21 -2.659365501e-22)
(-0 2.73060847e-22 -4.937348083e-23)
(-0 3.547709436e-23 -6.968714964e-24)
(-0 -1.751432343e-24 -4.753887788e-24)
(-0 -9.126129445e-25 -1.521021574e-25)
(-0 6.919992416e-26 -6.919992416e-25)
(-0 0 -0)
(-0 0 -0)
(-0 0 0)
(-0 0 0)
(-0 -0 -0)
(-0 -0 -0)
(-0 -0 -0)
(-0 -0 0)
(-0 -0 -0)
(-0 -0 -0)
(-0 -0 -0)
(-0 -0 0)
(-0 -0 -0)
(-0 -0 -0)
(-0 0 -0)
(-0 -2.830020983e-16 -1.020559229e-15)
(-0 -3.0698288e-14 -3.464077027e-14)
(-0 -1.267425943e-12 -8.47461384e-13)
(-0 -2.018444109e-11 -1.045548593e-11)
(-0 -4.313876177e-11 -2.061722818e-11)
(-0 -3.304234063e-11 -2.409100985e-11)
(-0 2.419219657e-07 -2.623910043e-06)
(-0 0.0001131525313 -4570.602831)
(-0 2.371959542e-05 -4363.189696)
(-0 6.316501691e-06 -6.823025276e-06)
(-0 4.507328216e-11 -3.731745256e-11)
(-0 4.930009375e-12 -3.309494976e-12)
(-0 1.791118746e-11 -1.009038749e-11)
(-0 1.22455877e-11 -5.932425702e-12)
(-0 5.754370134e-12 -2.441773539e-12)
(-0 7.842634168e-13 -2.957289611e-13)
(-0 5.534992426e-13 -1.876470137e-13)
(-0 4.058970577e-13 -1.249169182e-13)
(-0 3.061835235e-14 -8.623583259e-15)
(-0 2.621462868e-14 -6.803766962e-15)
(-0 3.145333856e-15 -7.567582413e-16)
(-0 1.165888988e-15 -2.613857929e-16)
(-0 3.827652841e-16 -8.032786766e-17)
(-0 3.983748918e-17 -7.857430458e-18)
(-0 2.412542178e-18 -4.488204216e-19)
(-0 1.021466589e-18 -1.798137679e-19)
(-0 1.979713968e-19 -3.307325858e-20)
(-0 4.506236889e-20 -7.162584663e-21)
(-0 1.253985589e-20 -1.900398885e-21)
(-0 1.815427593e-21 -2.647746908e-22)
(-0 3.069003964e-22 -4.626072151e-23)
(-0 6.616994684e-23 -1.332432377e-23)
(-0 1.094409435e-23 2.736023588e-24)
(-0 9.352726455e-37 2.233976903e-24)
(-0 -6.781592568e-25 1.186778699e-24)
(-0 -0 -0)
(-0 0 -0)
(-0 0 -0)
(-0 0 -0)
(-0 -0 0)
(-0 -0 -0)
(-0 -0 0)
(-0 -0 0)
(-0 -0 0)
(-0 -0 -0)
(-0 0 0)
(-0 -0 -0)
(-0 -0 0)
(-0 -0 0)
(-0 0 0)
(-0 -1.348247764e-17 -4.50515779e-17)
(-0 -2.164972281e-15 -2.268628952e-15)
(-0 -1.076942533e-13 -6.77490421e-14)
(-0 -7.563092248e-12 -3.804292803e-12)
(-0 -3.3969358e-11 -1.58717416e-11)
(-0 -1.659073912e-11 -8.39118359e-12)
(-0 -1.114368486e-06 -1.723712632e-06)
(-0 9.69956868e-07 -6660.856608)
(-0 -0.0001379049559 -6492.498891)
(-0 0.0001035914734 -0.0001073174892)
(-0 5.020110814e-11 -3.475906697e-11)
(-0 2.672184381e-11 -1.516452314e-11)
(-0 5.537755974e-11 -2.653775989e-11)
(-0 8.201125732e-12 -3.392618245e-12)
(-0 3.662224592e-12 -1.330272102e-12)
(-0 3.535984668e-12 -1.143304818e-12)
(-0 1.935179201e-13 -5.632231175e-14)
(-0 2.664544013e-13 -7.045904409e-14)
(-0 1.990824021e-13 -4.820878832e-14)
(-0 3.286901943e-14 -7.33825799e-15)
(-0 5.021969985e-15 -1.039755739e-15)
(-0 2.21080944e-15 -4.266532998e-16)
(-0 4.698559674e-16 -8.489935056e-17)
(-0 1.190508925e-16 -2.022157303e-17)
(-0 1.519605345e-17 -2.434979116e-18)
(-0 2.175944924e-18 -3.299719808e-19)
(-0 7.041311097e-19 -1.013451573e-19)
(-0 1.553409818e-19 -2.12762122e-20)
(-0 1.647410483e-20 -2.149158483e-21)
(-0 1.947296512e-21 -2.423516447e-22)
(-0 4.308955352e-22 -5.222525305e-23)
(-0 1.241460743e-22 -1.495092507e-23)
(-0 1.184702702e-23 9.255489857e-25)
(-0 -3.902593514e-25 -1.951296757e-24)
(-0 -1.055298844e-24 -1.582948265e-24)
(-0 -0 -0)
(-0 0 0)
(-0 0 -0)
(-0 0 -0)
(-0 0 0)
(-0 -0 -0)
(-0 -0 0)
(-0 -0 -0)
(-0 -0 0)
(-0 -0 0)
(-0 0 0)
(-0 0 -0)
(-0 0 0)
(-0 -0 0)
(-0 -0 0)
(-0 -1.923133759e-19 -5.684587553e-19)
(-0 -7.075060655e-17 -6.571501871e-17)
(-0 -5.070881006e-15 -2.859420128e-15)
(-0 -9.570549646e-13 -4.39998109e-13)
(-0 -1.59387457e-11 -7.065953669e-12)
(-0 -2.321936116e-11 -1.052229694e-11)
(-0 -1.316539326e-06 -8.815875027e-07)
(-0 -0.0002081557114 -8749.994312)
(-0 0.0001135444393 -8766.334479)
(-0 0.0002925564871 -0.0003145098552)
(-0 4.776245822e-11 -2.709638138e-11)
(-0 9.4148834e-11 -4.420259858e-11)
(-0 6.174054161e-11 -2.461667976e-11)
(-0 3.129688231e-11 -1.080972797e-11)
(-0 2.153138683e-12 -6.545010843e-13)
(-0 3.34999146e-12 -9.078402123e-13)
(-0 1.066504007e-12 -2.60439632e-13)
(-0 1.501049243e-13 -3.333000725e-14)
(-0 5.437289772e-14 -1.106258235e-14)
(-0 3.51228252e-14 -6.591285264e-15)
(-0 4.283535964e-15 -7.457358042e-16)
(-0 2.066358463e-15 -3.354089546e-16)
(-0 6.460908909e-16 -9.821440746e-17)
(-0 8.698363314e-17 -1.243200405e-17)
(-0 1.539115457e-17 -2.075500131e-18)
(-0 2.689895853e-18 -3.433238148e-19)
(-0 5.472818028e-19 -6.630328253e-20)
(-0 2.848598986e-19 -3.283982787e-20)
(-0 3.191149001e-20 -3.506924708e-21)
(-0 1.63305754e-21 -1.709481415e-22)
(-0 6.287349856e-22 -6.103049836e-23)
(-0 1.48697997e-22 -1.351799973e-23)
(-0 1.716406135e-23 -2.959320922e-24)
(-0 -4.177936467e-24 -1.329343421e-24)
(-0 -9.566889516e-25 -2.323387454e-24)
(-0 0 0)
(-0 0 0)
(-0 0 -0)
(-0 0 -0)
(-0 -0 -0)
(-0 -0 -0)
(-0 -0 0)
(-0 -0 -0)
(-0 -0 -0)
(-0 -0 0)
(-0 -0 -0)
(-0 -0 0)
(-0 0 -0)
(-0 0 -0)
(-0 -0 -0)
(-0 -2.995224755e-22 -7.422508117e-22)
(-0 -8.32911182e-19 -6.492909911e-19)
(-0 -1.122267942e-16 -5.356170549e-17)
(-0 -1.806943616e-14 -7.09671252e-15)
(-0 -2.220544427e-12 -8.540749737e-13)
(-0 -8.373997565e-12 -3.358841266e-12)
(-0 -9.629641091e-07 -4.267444968e-07)
(-0 -0.0004898033312 -10260.31133)
(-0 0.0008464635186 -10617.05738)
(-0 0.0004389561292 -0.0003682652738)
(-0 1.356890925e-10 -6.126210786e-11)
(-0 1.292338353e-10 -4.868640593e-11)
(-0 9.282327036e-11 -2.984269734e-11)