/*--------------------------------*- C++ -*----------------------------------*\
  =========                 |
  \\      /  F ield         | OpenFOAM: The Open Source CFD Toolbox
   \\    /   O peration     | Website:  https://openfoam.org
    \\  /    A nd           | Version:  6
     \\/     M anipulation  |
\*---------------------------------------------------------------------------*/
FoamFile
{
    version     2.0;
    format      ascii;
    class       volScalarField;
    location    "0.05";
    object      Num_divU;
}
// * * * * * * * * * * * * * * * * * * * * * * * * * * * * * * * * * * * * * //

dimensions      [0 0 -1 0 0 0 0];

internalField   nonuniform List<scalar> 
2500
(
-1.173475181e-08
-4.734527928e-08
6.868689523e-09
-1.677138677e-07
-2.486973887e-07
-3.575078284e-07
-4.037837642e-07
-3.48534697e-07
-2.338554063e-07
-4.761474968e-22
-2.130970879e-17
-4.792405561e-17
-7.294274759e-17
-9.730086806e-17
-1.213693721e-16
-1.452072391e-16
-1.687931242e-16
-1.920908325e-16
-2.150634683e-16
-2.376752455e-16
-2.598909298e-16
-2.816762469e-16
-3.029979399e-16
-3.238239111e-16
-3.441233417e-16
-3.638667793e-16
-3.830263417e-16
-4.015756832e-16
-4.194899675e-16
-4.367459194e-16
-4.533218441e-16
-4.691976137e-16
-4.84354625e-16
-4.987758386e-16
-5.124456671e-16
-5.253499809e-16
-5.37475898e-16
-5.48811898e-16
-5.593475741e-16
-5.69073638e-16
-5.779818328e-16
-5.86065026e-16
-5.933170741e-16
-5.997327615e-16
-6.053079698e-16
-6.100394952e-16
-6.139252527e-16
-6.169640597e-16
-6.191550633e-16
-6.204937345e-16
-2.195015664e-08
-3.808755888e-07
-5.24324814e-07
-5.185491863e-07
-1.750663545e-07
3.103174502e-07
6.734641573e-07
1.063441787e-06
-5.550813251e-08
-4.25591983e-17
-8.918905432e-17
-1.351420281e-16
-1.789184703e-16
-2.219481306e-16
-2.64519422e-16
-3.066270458e-16
-3.482120685e-16
-3.892088702e-16
-4.295528466e-16
-4.691816217e-16
-5.080343529e-16
-5.460519606e-16
-5.831773032e-16
-6.193556726e-16
-6.545348425e-16
-6.886652435e-16
-7.217000625e-16
-7.535950742e-16
-7.843090969e-16
-8.138035279e-16
-8.420427007e-16
-8.689936802e-16
-8.946260985e-16
-9.189124098e-16
-9.418274163e-16
-9.63348366e-16
-9.834547848e-16
-1.002128216e-15
-1.019352184e-15
-1.035112256e-15
-1.049395781e-15
-1.062191964e-15
-1.073491848e-15
-1.083288482e-15
-1.091577103e-15
-1.098355872e-15
-1.103628131e-15
-1.107408167e-15
-1.10974185e-15
-4.898822035e-16
-4.857324039e-08
-9.650966659e-08
-2.102974359e-07
-7.626945311e-08
-3.465678133e-07
-5.174156501e-07
-6.697646839e-07
-4.810166199e-08
-1.835517525e-07
-3.485386392e-17
-7.429522908e-17
-1.139982494e-16
-1.520328218e-16
-1.895188746e-16
-2.266398024e-16
-2.633697606e-16
-2.996515249e-16
-3.354262661e-16
-3.706373001e-16
-4.052302338e-16
-4.391519481e-16
-4.723508818e-16
-5.047773058e-16
-5.363832548e-16
-5.671230108e-16
-5.969531389e-16
-6.25832578e-16
-6.537227483e-16
-6.805873427e-16
-7.063926119e-16
-7.31107193e-16
-7.547021639e-16
-7.771509829e-16
-7.984293245e-16
-8.185151796e-16
-8.373884558e-16
-8.550311327e-16
-8.714269317e-16
-8.865613505e-16
-9.004215673e-16
-9.129963772e-16
-9.242760592e-16
-9.342524937e-16
-9.429189725e-16
-9.502702848e-16
-9.563025294e-16
-9.610122737e-16
-9.643933956e-16
-9.664213596e-16
-4.77248556e-16
-2.447544714e-08
-2.16828854e-08
-7.638899449e-07
-2.365926803e-07
-5.521938386e-08
-3.077750646e-08
-1.963429678e-07
3.158948007e-07
-8.143794743e-08
-3.430231938e-17
-7.295885164e-17
-1.120121819e-16
-1.494802361e-16
-1.864307242e-16
-2.230292565e-16
-2.592460523e-16
-2.950228842e-16
-3.303003146e-16
-3.650219186e-16
-3.991340153e-16
-4.325844432e-16
-4.653225288e-16
-4.972991756e-16
-5.284672907e-16
-5.587818088e-16
-5.881998358e-16
-6.166809477e-16
-6.441869601e-16
-6.706821472e-16
-6.961331981e-16
-7.20509179e-16
-7.43781622e-16
-7.659243386e-16
-7.869133259e-16
-8.067268337e-16
-8.253451112e-16
-8.427502658e-16
-8.589262757e-16
-8.738587538e-16
-8.875350021e-16
-8.99943809e-16
-9.110755716e-16
-9.209218866e-16
-9.294757786e-16
-9.367312864e-16
-9.426831509e-16
-9.473258735e-16
-9.50651923e-16
-9.526486143e-16
-4.761215528e-16
-2.556672815e-07
1.80474358e-07
-8.072712024e-07
-7.429304749e-07
-2.747347596e-07
-8.729563281e-08
-2.420790706e-07
-1.346618614e-07
1.287193366e-07
-3.427905594e-17
-7.285696053e-17
-1.118587216e-16
-1.49284817e-16
-1.861942799e-16
-2.227512374e-16
-2.589271492e-16
-2.946647068e-16
-3.299040615e-16
-3.645880171e-16
-3.98662372e-16
-4.320752033e-16
-4.647760747e-16
-4.967160845e-16
-5.27848322e-16
-5.581277374e-16
-5.875116044e-16
-6.159594214e-16
-6.43433166e-16
-6.698971648e-16
-6.953180766e-16
-7.196651267e-16
-7.429098536e-16
-7.650260413e-16
-7.859898536e-16
-8.057794812e-16
-8.243751344e-16
-8.417590105e-16
-8.579150393e-16
-8.728288027e-16
-8.864875454e-16
-8.988800525e-16
-9.099964843e-16
-9.198283436e-16
-9.28368319e-16
-9.3560994e-16
-9.415474931e-16
-9.461751287e-16
-9.494866252e-16
-9.514751654e-16
-4.760799057e-16
-2.798736192e-07
2.7880674e-08
-6.734307139e-08
-7.247132465e-07
-5.306279992e-07
-1.934070281e-07
-1.379527709e-07
-6.413817908e-07
7.234326896e-08
-3.429451927e-17
-7.286767035e-17
-1.118700333e-16
-1.493027192e-16
-1.86220087e-16
-2.227830925e-16
-2.589629292e-16
-2.947043179e-16
-3.299481217e-16
-3.646367601e-16
-3.987152624e-16
-4.32131496e-16
-4.648351061e-16
-4.96777369e-16
-5.279114357e-16
-5.581923833e-16
-5.87577518e-16
-6.160263557e-16
-6.435008716e-16
-6.6996536e-16
-6.953866358e-16
-7.197338222e-16
-7.429784885e-16
-7.650944848e-16
-7.860578817e-16
-8.058469186e-16
-8.244418219e-16
-8.418246703e-16
-8.579793962e-16
-8.728915799e-16
-8.865483895e-16
-8.989385725e-16
-9.100521188e-16
-9.198804348e-16
-9.284159829e-16
-9.356521957e-16
-9.415831833e-16
-9.462034172e-16
-9.495077349e-16
-9.514916218e-16
-4.761403063e-16
-6.184002259e-08
-5.575960173e-07
1.384753653e-07
-1.883876272e-07
-4.225293255e-07
-2.757076619e-07
4.170166722e-08
-3.015416282e-07
-1.058647587e-07
-3.430447674e-17
-7.289375328e-17
-1.118999437e-16
-1.493383771e-16
-1.86265759e-16
-2.228401458e-16
-2.590286018e-16
-2.947773223e-16
-3.300286948e-16
-3.647254571e-16
-3.988119139e-16
-4.322354531e-16
-4.649455831e-16
-4.968937265e-16
-5.280331021e-16
-5.583189204e-16
-5.877084976e-16
-6.161614547e-16
-6.436397098e-16
-6.70107649e-16
-6.955320164e-16
-7.19881973e-16
-7.431291239e-16
-7.652473172e-16
-7.862125704e-16
-8.060031938e-16
-8.245992254e-16
-8.41982909e-16
-8.581380406e-16
-8.730501829e-16
-8.867064845e-16
-8.990955883e-16
-9.102074914e-16
-9.200335186e-16
-9.285659996e-16
-9.357983665e-16
-9.417247624e-16
-9.463401058e-16
-9.496398707e-16
-9.516205625e-16
-4.762094419e-16
3.035183013e-08
-8.066845475e-07
-5.44047718e-07
-2.08162207e-07
-1.724208356e-07
-2.232658816e-07
-1.005187812e-07
1.944240567e-07
-1.235605033e-07
-3.430804622e-17
-7.291578803e-17
-1.119331021e-16
-1.493771007e-16
-1.863111671e-16
-2.228967e-16
-2.590946414e-16
-2.948504702e-16
-3.301086996e-16
-3.648128587e-16
-3.989071053e-16
-4.323381515e-16
-4.650551952e-16
-4.970095029e-16
-5.281545017e-16
-5.584454055e-16
-5.878395957e-16
-6.162967956e-16
-6.437789425e-16
-6.70250445e-16
-6.956780773e-16
-7.200309898e-16
-7.432807875e-16
-7.654012952e-16
-7.863685906e-16
-8.061608637e-16
-8.247582841e-16
-8.421428579e-16
-8.58298495e-16
-8.732107357e-16
-8.868666693e-16
-8.992548607e-16
-9.103654307e-16
-9.201894799e-16
-9.287194876e-16
-9.359488558e-16
-9.418718541e-16
-9.464836671e-16
-9.497802692e-16
-9.517586648e-16
-4.762777136e-16
2.316905783e-07
-2.37488425e-07
-7.016855493e-07
-7.427559858e-07
-3.27233018e-07
-1.667121865e-07
-3.717109561e-07
1.279462393e-07
-4.794201688e-08
-3.431419628e-17
-7.293092977e-17
-1.119629e-16
-1.494167452e-16
-1.863548623e-16
-2.229501263e-16
-2.59158128e-16
-2.949212749e-16
-3.301854055e-16
-3.648957421e-16
-3.989968697e-16
-4.324349754e-16
-4.651586929e-16
-4.971191363e-16
-5.282696346e-16
-5.585655189e-16
-5.879642406e-16
-6.164255618e-16
-6.439115033e-16
-6.703864598e-16
-6.95817238e-16
-7.201730356e-16
-7.434253833e-16
-7.655481891e-16
-7.865174416e-16
-8.063113348e-16
-8.249099763e-16
-8.422955011e-16
-8.584516253e-16
-8.733639661e-16
-8.870195911e-16
-8.994070807e-16
-9.105163997e-16
-9.203388389e-16
-9.288668298e-16
-9.360937757e-16
-9.420141977e-16
-9.466234623e-16
-9.499177499e-16
-9.518944314e-16
-4.763434987e-16
6.794500613e-08
2.162876021e-07
-6.955081645e-08
-6.88948806e-07
-5.838564283e-07
-1.25833564e-07
-3.720598884e-07
-1.53211687e-07
-1.091129514e-08
-3.432510992e-17
-7.294548231e-17
-1.119878479e-16
-1.494553721e-16
-1.863963272e-16
-2.229983784e-16
-2.592167455e-16
-2.949882178e-16
-3.302584777e-16
-3.649742349e-16
-3.990811701e-16
-4.325255224e-16
-4.652554898e-16
-4.9722179e-16
-5.283776245e-16
-5.586783305e-16
-5.880814287e-16
-6.165466855e-16
-6.440362311e-16
-6.70514516e-16
-6.959483319e-16
-7.203068541e-16
-7.435617005e-16
-7.65686636e-16
-7.866577545e-16
-8.064531847e-16
-8.250530461e-16
-8.424394257e-16
-8.585960644e-16
-8.735084971e-16
-8.871638634e-16
-8.995507354e-16
-9.106591044e-16
-9.204802075e-16
-9.290065361e-16
-9.36231631e-16
-9.421500537e-16
-9.467572966e-16
-9.500498895e-16
-9.520252217e-16
-4.764059574e-16
-2.660573133e-07
-1.710247385e-07
1.795378057e-07
-2.771707606e-07
-5.656858437e-07
-1.723004349e-07
-1.667139787e-07
-2.449533797e-07
9.930702572e-09
-3.433607113e-17
-7.296144353e-17
-1.120103284e-16
-1.494930273e-16
-1.864382325e-16
-2.230421516e-16
-2.592685117e-16
-2.950490732e-16
-3.303264771e-16
-3.650476986e-16
-3.991598903e-16
-4.326097645e-16
-4.653453611e-16
-4.9731711e-16
-5.284779866e-16
-5.587832937e-16
-5.881905691e-16
-6.166596183e-16
-6.441526047e-16
-6.706340007e-16
-6.960706961e-16
-7.204318085e-16
-7.436889831e-16
-7.658159848e-16
-7.867888599e-16
-8.065857231e-16
-8.251867529e-16
-8.425739074e-16
-8.587310527e-16
-8.736436718e-16
-8.872988423e-16
-8.996852062e-16
-9.107927571e-16
-9.206127856e-16
-9.29137787e-16
-9.363614212e-16
-9.422782569e-16
-9.468839919e-16
-9.501752027e-16
-9.521494047e-16
-4.764644026e-16
-1.382270732e-07
-5.69469138e-07
-1.449322452e-07
-1.120243351e-07
-4.309364675e-07
-3.512598575e-07
3.088968134e-09
-1.832615143e-07
4.982925286e-08
-3.434406541e-17
-7.297368395e-17
-1.120297325e-16
-1.495261566e-16
-1.864828581e-16
-2.230859237e-16
-2.593152391e-16
-2.951030086e-16
-3.303877771e-16
-3.651150542e-16
-3.99232427e-16
-4.32687332e-16
-4.654280348e-16
-4.974047668e-16
-5.285703266e-16
-5.588799366e-16
-5.882911743e-16
-6.16763791e-16
-6.442600257e-16
-6.707443932e-16
-6.961837269e-16
-7.20547318e-16
-7.438065954e-16
-7.659354721e-16
-7.869099853e-16
-8.067082189e-16
-8.253103001e-16
-8.426982298e-16
-8.588558549e-16
-8.737686252e-16
-8.874237173e-16
-8.998096723e-16
-9.109165722e-16
-9.207357329e-16
-9.292596983e-16
-9.364821057e-16
-9.423976988e-16
-9.470022187e-16
-9.502922997e-16
-9.522655754e-16
-4.765181062e-16
1.008695748e-07
-5.007941565e-07
-4.530612282e-07
-8.254472096e-08
-3.992773244e-07
-3.823618485e-07
3.397469739e-08
-1.900804294e-07
-2.744519072e-08
-3.435137304e-17
-7.298412676e-17
-1.120459919e-16
-1.495470858e-16
-1.865238043e-16
-2.231301738e-16
-2.593596798e-16
-2.951514881e-16
-3.30442291e-16
-3.651754128e-16
-3.992980015e-16
-4.327577109e-16
-4.655030937e-16
-4.974843739e-16
-5.286542533e-16
-5.589678601e-16
-5.883827134e-16
-6.168586731e-16
-6.443579227e-16
-6.708450053e-16
-6.962867952e-16
-7.206525391e-16
-7.439138192e-16
-7.660444273e-16
-7.870203891e-16
-8.068198445e-16
-8.254228947e-16
-8.428115618e-16
-8.589696154e-16
-8.73882614e-16
-8.87537623e-16
-8.99923305e-16
-9.11029691e-16
-9.208481579e-16
-9.293712139e-16
-9.365927004e-16
-9.425072789e-16
-9.471107563e-16
-9.503999077e-16
-9.523723585e-16
-4.765664825e-16
1.064248738e-07
-3.01642787e-07
-5.623089133e-07
-2.044818966e-07
-1.132880832e-07
-3.647044835e-07
-8.551926245e-08
-2.897926176e-08
-3.012352148e-07
-3.435866167e-17
-7.300235635e-17
-1.120689242e-16
-1.495601542e-16
-1.865544362e-16
-2.23170324e-16
-2.594017501e-16
-2.951958379e-16
-3.304906843e-16
-3.65228756e-16
-3.993560981e-16
-4.328203461e-16
-4.655700292e-16
-4.975554786e-16
-5.287293004e-16
-5.590465446e-16
-5.884646969e-16
-6.1694366e-16
-6.444456634e-16
-6.709351823e-16
-6.963791852e-16
-7.207468993e-16
-7.440099223e-16
-7.661420332e-16
-7.871193066e-16
-8.069198638e-16
-8.255237624e-16
-8.429130811e-16
-8.590715624e-16
-8.739847356e-16
-8.876397274e-16
-9.000251671e-16
-9.111311222e-16
-9.209490108e-16
-9.294713797e-16
-9.366920407e-16
-9.426057737e-16
-9.472084191e-16
-9.504967487e-16
-9.52468452e-16
-4.766088439e-16
-2.711118924e-08
-1.598233919e-07
-5.506388424e-07
-2.628079497e-07
1.284511311e-07
-3.688539891e-07
-1.579970115e-07
7.767494326e-07
-5.027974853e-07
-3.436242715e-17
-7.302165351e-17
-1.120988816e-16
-1.495769904e-16
-1.865750579e-16
-2.232009331e-16
-2.594378417e-16
-2.952350439e-16
-3.305331142e-16
-3.6527505e-16
-3.994065514e-16
-4.328748023e-16
-4.65628401e-16
-4.976175997e-16
-5.287949286e-16
-5.591154363e-16
-5.885365713e-16
-6.170181829e-16
-6.445225622e-16
-6.710142329e-16
-6.964601568e-16
-7.208295404e-16
-7.440940652e-16
-7.662274948e-16
-7.872059099e-16
-8.070074027e-16
-8.256120612e-16
-8.430019151e-16
-8.591607629e-16
-8.740741197e-16
-8.877290733e-16
-9.001143392e-16
-9.112199394e-16
-9.210372947e-16
-9.295590797e-16
-9.367790515e-16
-9.4269205e-16
-9.472939516e-16
-9.505815481e-16
-9.52552595e-16
-4.766446244e-16
-1.644345906e-07
-8.203960657e-08
-4.268842591e-07
-3.250969849e-07
1.010083113e-07
-2.667308221e-08
-5.911793663e-07
1.410993108e-06
-4.866295377e-07
-3.43653662e-17
-7.303167476e-17
-1.121236802e-16
-1.496042779e-16
-1.865939055e-16
-2.232230223e-16
-2.594656714e-16
-2.952671635e-16
-3.3056861e-16
-3.65313884e-16
-3.994488663e-16
-4.329207247e-16
-4.656777588e-16
-4.976702556e-16
-5.28850674e-16
-5.59174008e-16
-5.885976975e-16
-6.170816044e-16
-6.44587995e-16
-6.710814604e-16
-6.965289849e-16
-7.208997746e-16
-7.44165511e-16
-7.663000049e-16
-7.872793588e-16
-8.070816035e-16
-8.256868817e-16
-8.430771788e-16
-8.592363085e-16
-8.741497827e-16
-8.878047262e-16
-9.001897899e-16
-9.112950521e-16
-9.211119987e-16
-9.296332501e-16
-9.368525979e-16
-9.427649765e-16
-9.473661924e-16
-9.506531267e-16
-9.526235294e-16
-4.766731934e-16
-2.242761908e-07
-6.995459547e-08
-2.08594719e-07
-3.051332565e-07
-8.793251593e-09
2.240503245e-07
-9.306605395e-07
1.5752607e-06
-1.960823524e-07
-3.437196443e-17
-7.303570456e-17
-1.121308271e-16
-1.49633569e-16
-1.866159607e-16
-2.232422676e-16
-2.594873977e-16
-2.952920834e-16
-3.305964837e-16
-3.653446236e-16
-3.994826695e-16
-4.329575725e-16
-4.65717634e-16
-4.977129443e-16
-5.288959689e-16
-5.592216843e-16
-5.886474834e-16
-6.171332462e-16
-6.446412935e-16
-6.711361676e-16
-6.965848934e-16
-7.209567912e-16
-7.442234664e-16
-7.663587882e-16
-7.873387995e-16
-8.071416257e-16
-8.25747354e-16
-8.431379653e-16
-8.592972907e-16
-8.742108022e-16
-8.878656643e-16
-9.002505198e-16
-9.113555239e-16
-9.211720235e-16
-9.296927848e-16
-9.369115973e-16
-9.428233618e-16
-9.474239811e-16
-9.507102788e-16
-9.526800853e-16
-4.766939968e-16
-1.849176046e-07
-6.417576236e-08
-3.198159422e-08
-1.810125768e-07
-1.133231006e-07
3.018632737e-07
-7.713551121e-07
8.751754699e-07
2.044104412e-07
-3.437980723e-17
-7.304945408e-17
-1.121259228e-16
-1.496500172e-16
-1.866346093e-16
-2.232596755e-16
-2.595054504e-16
-2.953114019e-16
-3.306173114e-16
-3.653672703e-16
-3.995075862e-16
-4.329850006e-16
-4.657475054e-16
-4.977451549e-16
-5.289302786e-16
-5.59257845e-16
-5.886852697e-16
-6.171724755e-16
-6.446817049e-16
-6.711776228e-16
-6.966271995e-16
-7.209998244e-16
-7.442671172e-16
-7.664030137e-16
-7.873834728e-16
-8.071866492e-16
-8.257926532e-16
-8.431833975e-16
-8.593428208e-16
-8.742562956e-16
-8.879110087e-16
-9.002956337e-16
-9.114002575e-16
-9.212163689e-16
-9.297366706e-16
-9.369549433e-16
-9.42866143e-16
-9.474661559e-16
-9.507519197e-16
-9.527211211e-16
-4.767064732e-16
-1.230487685e-07
-5.426482318e-08
6.853956517e-08
4.024235978e-08
-2.815931898e-08
2.750881955e-07
-3.729167326e-07
-1.285986449e-07
5.152917684e-07
-3.437766699e-17
-7.307450827e-17
-1.121299351e-16
-1.496551169e-16
-1.866440072e-16
-2.232716008e-16
-2.59518998e-16
-2.953255332e-16
-3.30631678e-16
-3.653821655e-16
-3.995236619e-16
-4.330026853e-16
-4.657670175e-16
-4.977663644e-16
-5.28953035e-16
-5.592819083e-16
-5.887104727e-16
-6.171985796e-16
-6.447085586e-16
-6.712050836e-16
-6.966551483e-16
-7.210281746e-16
-7.44295788e-16
-7.664319046e-16
-7.874125439e-16
-8.072158455e-16
-8.258218748e-16
-8.432126466e-16
-8.593719254e-16
-8.742852704e-16
-8.879397374e-16
-9.003240784e-16
-9.114283273e-16
-9.212440396e-16
-9.297637957e-16
-9.369815802e-16
-9.428922402e-16
-9.474917116e-16
-9.507768933e-16
-9.527455197e-16
-4.767100974e-16
-8.934667309e-08
-8.098435388e-08
3.158200854e-08
1.729191889e-07
1.13085401e-07
1.352022575e-07
5.78509326e-08
-7.536527117e-07
6.662471743e-07
-3.436776454e-17
-7.308939811e-17
-1.121453187e-16
-1.496587849e-16
-1.866469246e-16
-2.232762489e-16
-2.595258442e-16
-2.953334147e-16
-3.306394409e-16
-3.653895333e-16
-3.995310238e-16
-4.330106627e-16
-4.657758878e-16
-4.977762628e-16
-5.289638285e-16
-5.592934034e-16
-5.887224736e-16
-6.17210985e-16
-6.447212095e-16
-6.712178997e-16
-6.96668028e-16
-7.210410666e-16
-7.443086426e-16
-7.664447021e-16
-7.874252587e-16
-8.072284101e-16
-8.258342789e-16
-8.432248166e-16
-8.593838611e-16
-8.742968723e-16
-8.879510253e-16
-9.003349486e-16
-9.114387948e-16
-9.212539948e-16
-9.297733038e-16
-9.369905128e-16
-9.429006452e-16
-9.47499539e-16
-9.507841554e-16
-9.527522581e-16
-4.767043888e-16
-6.270226647e-08
-1.082846917e-07
-1.530152014e-07
1.592920317e-07
3.577926083e-07
-7.212141806e-09
2.595928968e-07
-1.140025467e-06
6.298984456e-07
-3.436597929e-17
-7.308452222e-17
-1.121563224e-16
-1.49662146e-16
-1.86647711e-16
-2.232748907e-16
-2.595246993e-16
-2.953332069e-16
-3.30639363e-16
-3.653888628e-16
-3.995295806e-16
-4.330087541e-16
-4.65773908e-16
-4.977743603e-16
-5.289621096e-16
-5.592917656e-16
-5.887207735e-16
-6.17209062e-16
-6.44719054e-16
-6.712153942e-16
-6.966652036e-16
-7.210378398e-16
-7.443050404e-16
-7.664406843e-16
-7.874208365e-16
-8.072235977e-16
-8.258290473e-16
-8.432191517e-16
-8.593777386e-16
-8.742903012e-16
-8.879439416e-16
-9.003274074e-16
-9.114306969e-16
-9.212453945e-16
-9.297641121e-16
-9.369808304e-16
-9.428903711e-16
-9.474887514e-16
-9.507727991e-16
-9.527403905e-16
-4.766888843e-16
-4.260145591e-08
-2.405061522e-08
-3.414222731e-07
-1.326928558e-07
4.597103358e-07
3.978618116e-08
3.014267291e-07
-1.286857379e-06
4.261023991e-07
-3.437505357e-17
-7.307277974e-17
-1.121550366e-16
-1.496604533e-16
-1.8664694e-16
-2.232697414e-16
-2.595161422e-16
-2.953240669e-16
-3.30630195e-16
-3.653791205e-16
-3.995187758e-16
-4.329967333e-16
-4.657608561e-16
-4.977604911e-16
-5.289474895e-16
-5.592764828e-16
-5.887047903e-16
-6.17192318e-16
-6.447014863e-16
-6.711969925e-16
-6.966459923e-16
-7.210178709e-16
-7.442843139e-16
-7.664192262e-16
-7.873986248e-16
-8.072006536e-16
-8.258054165e-16
-8.431948681e-16
-8.59352818e-16
-8.742647219e-16
-8.879177324e-16
-9.003005557e-16
-9.114032585e-16
-9.212173225e-16
-9.297354974e-16
-9.36951582e-16
-9.428605473e-16
-9.474583429e-16
-9.507418701e-16
-9.527089382e-16
-4.766632044e-16
-1.052371343e-07
1.111764434e-07
-2.956095413e-07
-5.485509007e-07
5.220128902e-08
1.156397663e-07
4.023525062e-07
-1.099094548e-06
1.517590076e-07
-3.438416161e-17
-7.306578804e-17
-1.1214598e-16
-1.496511102e-16
-1.866417625e-16
-2.232612727e-16
-2.595018474e-16
-2.953065368e-16
-3.30611449e-16
-3.65359574e-16
-3.994978078e-16
-4.329740365e-16
-4.657363233e-16
-4.977342785e-16
-5.289197082e-16
-5.592471821e-16
-5.886740439e-16
-6.171602073e-16
-6.446680024e-16
-6.711621881e-16
-6.966099194e-16
-7.209805824e-16
-7.442458358e-16
-7.663796279e-16
-7.87357967e-16
-8.071589791e-16
-8.257627989e-16
-8.43151295e-16
-8.59308343e-16
-8.742194206e-16
-8.878716386e-16
-9.002536872e-16
-9.113556686e-16
-9.211690487e-16
-9.296865124e-16
-9.369019848e-16
-9.428103575e-16
-9.474075809e-16
-9.506905777e-16
-9.526571475e-16
-4.766268909e-16
-2.585784058e-07
1.096335663e-07
2.412689679e-08
-5.964232664e-07
-5.988405523e-07
-1.175283374e-07
3.469803467e-07
-6.48828892e-07
-4.845186678e-08
-3.438576592e-17
-7.30646841e-17
-1.121366889e-16
-1.496364904e-16
-1.866290029e-16
-2.232479831e-16
-2.594827612e-16
-2.952821037e-16
-3.305837555e-16
-3.65329958e-16
-3.994662715e-16
-4.329401315e-16
-4.656998859e-16
-4.97695277e-16
-5.288782921e-16
-5.592034987e-16
-5.886281948e-16
-6.171122808e-16
-6.446181068e-16
-6.711104724e-16
-6.96556408e-16
-7.209254097e-16
-7.44189082e-16
-7.663213819e-16
-7.872983146e-16
-8.070979545e-16
-8.257004664e-16
-8.430877911e-16
-8.592437134e-16
-8.741537385e-16
-8.878049711e-16
-9.001860845e-16
-9.112872167e-16
-9.210998021e-16
-9.296165373e-16
-9.368313305e-16
-9.427390625e-16
-9.473356902e-16
-9.506181456e-16
-9.525842389e-16
-4.765796864e-16
-3.845365983e-07
-1.115828039e-07
2.561909692e-07
-1.9567027e-07
-8.40120324e-07
-4.218083645e-07
5.365241086e-08
-3.145776962e-07
-1.054093969e-07
-3.438082644e-17
-7.306394291e-17
-1.121287886e-16
-1.496204667e-16
-1.866072045e-16
-2.232269399e-16
-2.59458141e-16
-2.952514989e-16
-3.30548169e-16
-3.652907283e-16
-3.994239727e-16
-4.328947366e-16
-4.656511723e-16
-4.976432104e-16
-5.288229284e-16
-5.591450297e-16
-5.885668356e-16
-6.17048189e-16
-6.445514496e-16
-6.710413833e-16
-6.964850575e-16
-7.208519146e-16
-7.44113574e-16
-7.662439397e-16
-7.872190807e-16
-8.070170468e-16
-8.256179445e-16
-8.430038138e-16
-8.591583349e-16
-8.740670488e-16
-8.87717145e-16
-9.000971736e-16
-9.11197324e-16
-9.210089995e-16
-9.295249133e-16
-9.367389358e-16
-9.42645977e-16
-9.472420329e-16
-9.505239465e-16
-9.52489559e-16
-4.76521285e-16
-3.523659818e-07
-3.437198477e-07
1.497386557e-07
1.690823921e-07
-6.15118473e-07
-5.187910648e-07
-2.778736343e-07
-2.288722361e-07
-4.00073021e-09
-3.437377764e-17
-7.305834337e-17
-1.121176894e-16
-1.496051606e-16
-1.865776449e-16
-2.231958173e-16
-2.594254719e-16
-2.952138335e-16
-3.305047848e-16
-3.652422253e-16
-3.993710414e-16
-4.328376108e-16
-4.655898125e-16
-4.975776635e-16
-5.287533197e-16
-5.590715429e-16
-5.88489672e-16
-6.169676081e-16
-6.444676836e-16
-6.709545916e-16
-6.963954749e-16
-7.207596831e-16
-7.44018861e-16
-7.661469117e-16
-7.871198362e-16
-8.069157728e-16
-8.255147658e-16
-8.428988014e-16
-8.590516912e-16
-8.739589383e-16
-8.876076038e-16
-8.999863932e-16
-9.110854149e-16
-9.208960914e-16
-9.294110795e-16
-9.366242626e-16
-9.425306151e-16
-9.471259858e-16
-9.504073859e-16
-9.523725431e-16
-4.764514693e-16
-1.89821407e-07
-3.54865173e-07
-9.339760633e-08
2.114740543e-07
-3.047442978e-07
-3.813582314e-07
-3.707465784e-07
-3.415035379e-07
1.894702763e-07
-3.436711094e-17
-7.304697031e-17
-1.120986022e-16
-1.495892967e-16
-1.865448878e-16
-2.231562623e-16
-2.593836305e-16
-2.951676577e-16
-3.304528733e-16
-3.651843429e-16
-3.993075183e-16
-4.327687467e-16
-4.65515753e-16
-4.974984455e-16
-5.286691762e-16
-5.589827056e-16
-5.88396447e-16
-6.168702602e-16
-6.443664983e-16
-6.70849848e-16
-6.962873589e-16
-7.206484151e-16
-7.439046435e-16
-7.660299289e-16
-7.870002557e-16
-8.067937216e-16
-8.25390455e-16
-8.42772445e-16
-8.589234009e-16
-8.738288597e-16
-8.874759903e-16
-8.998533345e-16
-9.109510623e-16
-9.207605622e-16
-9.292745789e-16
-9.364868702e-16
-9.423924185e-16
-9.469871699e-16
-9.502679887e-16
-9.522326949e-16
-4.763699853e-16
-4.846616645e-08
-1.975523806e-07
-2.138447425e-07
4.293266132e-08
-1.865402802e-07
-1.88219836e-07
-1.143188422e-07
-5.260269449e-07
3.975397339e-07
-3.435971559e-17
-7.303052095e-17
-1.120703699e-16
-1.495661914e-16
-1.865109843e-16
-2.23112294e-16
-2.593338824e-16
-2.951125955e-16
-3.303916448e-16
-3.651166173e-16
-3.992332278e-16
-4.326879969e-16
-4.654287767e-16
-4.974054397e-16
-5.285703575e-16
-5.588784084e-16
-5.88286981e-16
-6.167559913e-16
-6.442477053e-16
-6.70726861e-16
-6.96160445e-16
-7.205178041e-16
-7.437706077e-16
-7.65892642e-16
-7.868599705e-16
-8.066506534e-16
-8.25244776e-16
-8.426243505e-16
-8.587730969e-16
-8.736765595e-16
-8.873218301e-16
-8.99697617e-16
-9.1079391e-16
-9.206021233e-16
-9.291150219e-16
-9.363263245e-16
-9.422310908e-16
-9.468251104e-16
-9.501054061e-16
-9.520696755e-16
-4.762767594e-16
-1.426298339e-08
-6.59687108e-08
-1.811727971e-07
-9.228056784e-08
-1.979192065e-07
-5.969877367e-08
3.375963043e-07
-7.086816591e-07
5.585689401e-07
-3.435028305e-17
-7.301219265e-17
-1.120391906e-16
-1.495296142e-16
-1.8647242e-16
-2.23065091e-16
-2.592780018e-16
-2.950492117e-16
-3.303210764e-16
-3.650386492e-16
-3.991478396e-16
-4.325952419e-16
-4.65328788e-16
-4.9729846e-16
-5.284567287e-16
-5.587584898e-16
-5.88161168e-16
-6.166246238e-16
-6.441111936e-16
-6.70585503e-16
-6.960145937e-16
-7.203677379e-16
-7.436165625e-16
-7.657349108e-16
-7.866987695e-16
-8.064862452e-16
-8.250774189e-16
-8.424542739e-16
-8.586005227e-16
-8.735017788e-16
-8.871450283e-16
-8.995189768e-16
-9.106136745e-16
-9.204204903e-16
-9.289321491e-16
-9.361424359e-16
-9.420462623e-16
-9.466395882e-16
-9.499192805e-16
-9.518831837e-16
-4.761716487e-16
-4.865274163e-08
-5.178385002e-08
-1.264196674e-07
-9.169023661e-08
-1.436869937e-07
8.983962678e-09
6.820622057e-07
-8.907922722e-07
6.233104123e-07
-3.433895638e-17
-7.299151235e-17
-1.120119044e-16
-1.494819133e-16
-1.864255682e-16
-2.230128063e-16
-2.592161903e-16
-2.949781296e-16
-3.30241275e-16
-3.649504648e-16
-3.990513023e-16
-4.324903537e-16
-4.652157022e-16
-4.971774855e-16
-5.283282025e-16
-5.586228744e-16
-5.880188725e-16
-6.164760892e-16
-6.439568131e-16
-6.704256554e-16
-6.958496159e-16
-7.201980071e-16
-7.434423654e-16
-7.65556556e-16
-7.865165304e-16
-8.063004052e-16
-8.248882322e-16
-8.422620193e-16
-8.584055427e-16
-8.73304269e-16
-8.869452942e-16
-8.993172502e-16
-9.104101644e-16
-9.202154784e-16
-9.287257688e-16
-9.359349246e-16
-9.418378231e-16
-9.464303821e-16
-9.497094879e-16
-9.516729829e-16
-4.760546381e-16
-7.72590828e-08
-9.900452373e-08
-1.33277144e-07
-1.448333512e-08
4.682200712e-08
4.513878648e-09
6.000642971e-07
-8.580862861e-07
5.196634204e-07
-3.432937611e-17
-7.296521176e-17
-1.11986807e-16
-1.494294916e-16
-1.863691697e-16
-2.229520416e-16
-2.591467467e-16
-2.948988305e-16
-3.301523108e-16
-3.648520699e-16
-3.989435012e-16
-4.32373287e-16
-4.650894811e-16
-4.97042469e-16
-5.281848133e-16
-5.584715452e-16
-5.878601334e-16
-6.163103659e-16
-6.437845871e-16
-6.702473173e-16
-6.956655835e-16
-7.200085997e-16
-7.432479983e-16
-7.653575165e-16
-7.863131566e-16
-8.060930515e-16
-8.246771728e-16
-8.420475918e-16
-8.581880711e-16
-8.730840165e-16
-8.867225602e-16
-8.990923301e-16
-9.10183323e-16
-9.199869448e-16
-9.284958186e-16
-9.357037323e-16
-9.416056068e-16
-9.461973734e-16
-9.494759142e-16
-9.514390168e-16
-4.759256812e-16
-7.550178355e-08
-1.216933182e-07
-1.656727651e-07
2.496244973e-08
2.032029375e-07
1.354124418e-07
4.131502462e-07
-3.815879751e-07
1.6010262e-07
-3.43251958e-17
-7.29347977e-17
-1.119610583e-16
-1.493821759e-16
-1.863083864e-16
-2.228823075e-16
-2.590678254e-16
-2.948101852e-16
-3.300537062e-16
-3.647432561e-16
-3.988244537e-16
-4.322439811e-16
-4.649501513e-16
-4.96893467e-16
-5.280265649e-16
-5.583045909e-16
-5.87684946e-16
-6.161275104e-16
-6.435944699e-16
-6.700504724e-16
-6.954624118e-16
-7.197995257e-16
-7.430333646e-16
-7.651377569e-16
-7.860886449e-16
-8.058641082e-16
-8.244442112e-16
-8.418109204e-16
-8.579480159e-16
-8.728409846e-16
-8.864768233e-16
-8.988441923e-16
-9.099331089e-16
-9.197348951e-16
-9.282422103e-16
-9.354488515e-16
-9.413496593e-16
-9.459405798e-16
-9.492184854e-16
-9.511812215e-16
-4.757847996e-16
-7.003425756e-08
-9.725870161e-08
-1.423239839e-07
-6.111260915e-08
4.901667813e-08
3.594649377e-07
2.14263675e-07
5.672008709e-07
-1.920950935e-07
-3.432157493e-17
-7.289666911e-17
-1.119219256e-16
-1.493385866e-16
-1.862484568e-16
-2.228073367e-16
-2.589807455e-16
-2.947122791e-16
-3.299451983e-16
-3.646239356e-16
-3.986940447e-16
-4.321024234e-16
-4.647976935e-16
-4.967304522e-16
-5.27853533e-16
-5.5812202e-16
-5.874934295e-16
-6.159275534e-16
-6.433866067e-16
-6.698351999e-16
-6.952402095e-16
-7.195708243e-16
-7.427986258e-16
-7.648973985e-16
-7.858430546e-16
-8.056137028e-16
-8.241894132e-16
-8.415521148e-16
-8.576855482e-16
-8.725752223e-16
-8.862081743e-16
-8.985729672e-16
-9.096595834e-16
-9.194594464e-16
-9.279650765e-16
-9.351702851e-16
-9.410699955e-16
-9.456600152e-16
-9.48937311e-16
-9.508996395e-16
-4.75632083e-16
-9.506327235e-08
-7.660295625e-08
-1.969335518e-08
-1.783773172e-07
-3.615384957e-07
4.777991903e-07
-3.028808207e-07
8.76926887e-07
-3.227608352e-07
-3.431699154e-17
-7.28627389e-17
-1.118665319e-16
-1.492849969e-16
-1.861833432e-16
-2.227268593e-16
-2.588864815e-16
-2.946058575e-16
-3.2982715e-16
-3.644941217e-16
-3.985522924e-16
-4.319486861e-16
-4.646321716e-16
-4.965535645e-16
-5.276657702e-16
-5.579239601e-16
-5.872856351e-16
-6.157106382e-16
-6.431611369e-16
-6.69601651e-16
-6.949991074e-16
-7.193226613e-16
-7.425438954e-16
-7.646365479e-16
-7.855765285e-16
-8.053419635e-16
-8.239128926e-16
-8.412712221e-16
-8.574007784e-16
-8.722868759e-16
-8.859167082e-16
-8.982786988e-16
-9.093629166e-16
-9.191606359e-16
-9.276645097e-16
-9.348682543e-16
-9.407666918e-16
-9.45355828e-16
-9.486324584e-16
-9.505944231e-16
-4.754676147e-16
-1.521160791e-07
-1.553581905e-07
1.105397642e-07
-8.576269768e-08
-7.110012573e-07
3.01697401e-07
-3.626179664e-07
5.732368079e-07
-3.426809901e-07
-3.430657875e-17
-7.284564149e-17
-1.118162671e-16
-1.492231462e-16
-1.861093337e-16
-2.226388083e-16
-2.587847493e-16
-2.944911904e-16
-3.296998052e-16
-3.643540449e-16
-3.983992672e-16
-4.317828364e-16
-4.644536826e-16
-4.963629176e-16
-5.274634478e-16
-5.577105901e-16
-5.870617946e-16
-6.154769092e-16
-6.429181211e-16
-6.693499706e-16
-6.947392731e-16
-7.190551999e-16
-7.422693349e-16
-7.643553561e-16
-7.852892667e-16
-8.050490938e-16
-8.236148663e-16
-8.409685411e-16
-8.570938284e-16
-8.71976179e-16
-8.856026238e-16
-8.979616429e-16