/*--------------------------------*- C++ -*----------------------------------*\
  =========                 |
  \\      /  F ield         | OpenFOAM: The Open Source CFD Toolbox
   \\    /   O peration     | Website:  https://openfoam.org
    \\  /    A nd           | Version:  6
     \\/     M anipulation  |
\*---------------------------------------------------------------------------*/
FoamFile
{
    version     2.0;
    format      ascii;
    class       volScalarField;
    location    "0.05";
    object      p_rgh;
}
// * * * * * * * * * * * * * * * * * * * * * * * * * * * * * * * * * * * * * //

dimensions      [1 -1 -2 0 0 0 0];

internalField   nonuniform List<scalar> 
2500
(
0.04602014438
0.1031498897
0.1527433283
0.184345132
0.2032025898
0.2123322407
0.2171281249
0.2111745064
27276.31751
27315.65789
27354.56513
27392.82048
27430.12695
27466.21892
27500.86887
27533.89168
27565.14633
27594.5354
27622.00259
27647.52892
27671.12794
27692.84051
27712.72952
27730.87472
27747.36808
27762.30957
27775.80359
27787.95604
27798.87191
27808.65342
27817.39866
27825.20056
27832.14633
27838.31698
27843.78723
27848.62549
27852.89398
27856.64896
27859.94096
27862.81511
27865.31142
27867.46516
27869.30708
27870.86378
27872.1579
27873.20842
27874.03082
27874.63727
27875.03676
27875.23514
0.05255332687
0.1090841942
0.1590433675
0.188618742
0.205721461
0.2134352164
0.2175575751
0.2120548859
27276.3226
27315.99143
27355.21712
27393.76928
27431.34137
27467.66087
27502.49597
27535.65982
27567.01195
27596.45736
27623.9436
27649.45644
27673.01464
27694.6644
27714.47369
27732.527
27748.92043
27763.75754
27777.14571
27789.19321
27800.00689
27809.69035
27818.34266
27826.05742
27832.92217
27839.01812
27844.41998
27849.19604
27853.4083
27857.11276
27860.35965
27863.19377
27865.65486
27867.77783
27869.59318
27871.12723
27872.4024
27873.43744
27874.24767
27874.84514
27875.23876
27875.43444
0.06733465572
0.1209750872
0.1716590691
0.1966571188
0.210112655
0.2151674704
0.2179762769
0.2133348914
27276.32224
27316.66743
27356.54283
27395.69817
27433.80843
27470.5873
27505.79448
27539.23989
27570.78458
27600.33887
27627.85848
27653.33913
27676.81042
27698.32945
27717.97464
27735.84
27752.03003
27766.65545
27779.82954
27791.66531
27802.27324
27811.75964
27820.22546
27827.76555
27834.46814
27840.41471
27845.67993
27850.33179
27854.43188
27858.0356
27861.19259
27863.94701
27866.33793
27868.39968
27870.16216
27871.65115
27872.8886
27873.89286
27874.6789
27875.25848
27875.6403
27875.83014
0.09201406153
0.1398949099
0.1914784346
0.2086023369
0.2157031279
0.216734413
0.217637676
0.2143478301
27276.32285
27317.71119
27358.58876
27398.6721
27437.60689
27475.08544
27510.85483
27544.72083
27576.5478
27606.25534
27633.81268
27659.23163
27682.55898
27703.86895
27723.25611
27740.82905
27756.70505
27771.00554
27783.85262
27795.36621
27805.66213
27814.85054
27823.03509
27830.31229
27836.77129
27842.49385
27847.55444
27852.02057
27855.95307
27859.40646
27862.4294
27865.06506
27867.35152
27869.32215
27871.00598
27872.42798
27873.60938
27874.56789
27875.31798
27875.87097
27876.23525
27876.41637
0.1147920862
0.1595691445
0.2126277288
0.2220798327
0.2206990182
0.2170045841
0.2154133954
0.2139966582
27276.3247
27319.16162
27361.42908
27402.79452
27442.86153
27481.29271
27517.81859
27552.2409
27584.43062
27614.32228
27641.90562
27667.21615
27690.32544
27711.33187
27730.35245
27747.5158
27762.95637
27776.80992
27789.21007
27800.28576
27810.15951
27818.94636
27826.75315
27833.67835
27839.81203
27845.2361
27850.02461
27854.24421
27857.9546
27861.20903
27864.05477
27866.5336
27868.68224
27870.53277
27872.11298
27873.44678
27874.5544
27875.45273
27876.15553
27876.67355
27877.01476
27877.18441
0.1104808248
0.168858733
0.224680623
0.2301349859
0.2205455711
0.2126284634
0.2095134173
0.2103249913
27276.32586
27321.07468
27365.17156
27408.21524
27449.75188
27489.40519
27526.88591
27561.99361
27594.61167
27624.69777
27652.2717
27677.40237
27700.19529
27720.78125
27739.30672
27755.92607
27770.79551
27784.06857
27795.89291
27806.40819
27815.74482
27824.02326
27831.35387
27837.83703
27843.56353
27848.61508
27853.06489
27856.97827
27860.41334
27863.42155
27866.04834
27868.33364
27870.3124
27872.01501
27873.46775
27874.69309
27875.71007
27876.53449
27877.17922
27877.65432
27877.96722
27878.12279
0.05029406677
0.14615521
0.2159438996
0.2300481782
0.2145689459
0.2002124902
0.1979341302
0.2017100611
27276.31917
27323.52869
27369.96735
27415.14276
27458.52536
27499.69006
27538.32615
27574.23595
27607.3248
27637.58567
27665.08138
27689.92679
27712.27265
27732.29174
27750.1678
27766.08703
27780.23188
27792.77683
27803.88573
27813.71026
27822.38933
27830.04905
27836.80311
27842.75347
27847.99112
27852.59698
27856.64277
27860.19188
27863.30017
27866.01676
27868.38467
27870.44152
27872.22002
27873.74847
27875.05125
27876.14914
27877.05964
27877.79731
27878.37393
27878.79868
27879.07837
27879.21745
-0.0477894272
0.07141573344
0.1586528826
0.2118554773
0.2045042399
0.1878227563
0.1802435687
0.1892249462
27276.30685
27326.63597
27376.02644
27423.86272
27469.51636
27512.50327
27552.4925
27589.29917
27622.86597
27653.23896
27680.5417
27704.95124
27726.67733
27745.94591
27762.98646
27778.02318
27791.269
27802.92205
27813.16387
27822.15878
27830.05422
27836.98155
27843.05716
27848.38375
27853.05166
27857.14013
27860.71854
27863.84752
27866.57995
27868.96189
27871.03336
27872.82906
27874.37899
27875.70893
27876.84099
27877.7939
27878.58342
27879.22257
27879.72185
27880.08949
27880.33152
27880.45189
-0.1213982655
-0.01769460815
0.06614555272
0.1643918582
0.1913346069
0.1810892974
0.1584050873
0.1760771162
27276.2943
27330.55436
27383.63968
27434.76477
27483.17355
27528.31368
27569.84111
27607.6021
27641.60101
27671.96269
27698.8956
27722.65961
27743.54015
27761.82879
27777.80972
27791.75105
27803.89976
27814.47945
27823.68989
27831.70777
27838.68827
27844.76685
27850.06132
27854.67384
27858.69278
27862.19451
27865.24495
27867.90094
27870.21147
27872.21876
27873.9591
27875.46368
27876.75924
27877.86861
27878.81121
27879.60342
27880.25894
27880.78904
27881.20281
27881.5073
27881.70769
27881.8074
-0.1235385443
-0.04672358115
0.01967074923
0.118802313
0.172141364
0.1654102697
0.1433537759
0.1663344654
27276.29001
27335.50856
27393.21296
27448.38228
27500.09857
27547.7361
27590.9557
27629.66687
27663.97328
27694.11541
27720.41878
27743.25201
27762.99553
27780.02013
27794.67342
27807.27242
27818.10047
27827.40707
27835.40945
27842.29519
27848.22529
27853.33733
27857.74854
27861.55863
27864.85226
27867.70137
27870.167
27872.30102
27874.14748
27875.74383
27877.12187
27878.30862
27879.327
27880.19639
27880.93315
27881.55097
27882.06123
27882.47322
27882.79441
27883.03057
27883.18595
27883.26329
-0.0783108073
-0.001170345225
0.0631857875
0.1218109195
0.1491276102
0.1354110457
0.1373506702
0.1431481134
27276.29622
27341.82751
27405.32081
27465.45153
27521.10112
27571.57547
27616.57808
27656.13608
27690.50984
27720.10716
27745.41258
27766.93472
27785.17057
27800.58361
27813.59229
27824.56565
27833.8236
27841.6399
27848.24667
27853.83928
27858.58142
27862.60973
27866.03802
27868.96099
27871.45744
27873.59287
27875.42187
27876.98988
27878.33486
27879.48847
27880.47721
27881.32323
27882.04505
27882.65813
27883.17537
27883.60745
27883.96313
27884.24956
27884.4724
27884.63602
27884.7436
27884.79723
-0.02446003051
0.05770613989
0.133507042
0.1680543294
0.1470442328
0.1055411884
0.1164430826
0.07475978794
27276.36488
27350.01653
27420.78996
27486.99996
27547.27716
27600.88523
27647.64423
27687.78917
27721.82286
27750.39117
27774.19025
27793.90447
27810.16925
27823.55236
27834.54745
27843.5753
27850.98937
27857.08331
27862.09908
27866.23492
27869.65248
27872.48324
27874.83391
27876.79104
27878.42477
27879.792
27880.93891
27881.90301
27882.71483
27883.39924
27883.97655
27884.46333
27884.87313
27885.21704
27885.5041
27885.74166
27885.93566
27886.09085
27886.21098
27886.29888
27886.3566
27886.38548
-0.001122011086
0.08177622869
0.1647978994
0.2002846548
0.163402021
0.08700217931
0.05541519644
-0.04318700129
27277.13316
27360.86539
27440.82008
27514.4782
27580.11974
27637.04226
27685.3234
27725.55319
27758.60145
27785.44493
27807.05356
27824.32456
27838.05061
27848.91016
27857.47088
27864.19979
27869.47635
27873.60594
27876.83251
27879.3499
27881.31142
27882.83794
27884.02448
27884.94561
27885.65976
27886.21263
27886.63995
27886.96963
27887.22344
27887.41838
27887.56769
27887.68169
27887.76842
27887.83413
27887.88366
27887.92076
27887.94834
27887.96858
27887.98316
27887.99328
27887.99982
27888.0033
0.001602831922
0.06883524831
0.1405430591
0.1731213516
0.1541153718
0.06692205229
-0.03982414511
-0.1494935182
27277.30592
27375.15659
27467.14085
27549.96811
27621.67767
27681.83839
27731.05285
27770.49856
27801.58527
27825.73437
27844.25556
27858.29076
27868.79963
27876.56798
27882.22728
27886.27777
27889.11142
27891.03267
27892.27622
27893.02185
27893.40647
27893.53372
27893.48157
27893.30831
27893.05719
27892.75999
27892.43984
27892.11333
27891.79216
27891.48439
27891.1954
27890.92861
27890.68604
27890.4687
27890.27697
27890.11075
27889.96969
27889.85333
27889.76114
27889.69265
27889.64746
27889.62528
-0.006467277528
0.03778182692
0.08247146891
0.0946033135
0.07805788076
0.0009577074654
-0.1378475516
-0.08601202523
27277.06521
27394.76815
27502.60929
27596.56826
27674.77948
27737.57816
27786.55023
27823.80322
27851.50769
27871.65305
27885.94496
27895.78474
27902.29055
27906.33618
27908.59374
27909.57378
27909.66005
27909.13822
27908.21893
27907.0559
27905.75999
27904.40999
27903.06088
27901.75
27900.50183
27899.33146
27898.24726
27897.25289
27896.3487
27895.53287
27894.80219
27894.1526
27893.57971
27893.079
27892.64609
27892.2769
27891.96771
27891.71526
27891.5168
27891.3701
27891.27346
27891.22577
-0.02015370511
0.002877277549
0.01935408398
0.01168565486
-0.03398837997
-0.1166585284
-0.1988560607
0.2831325569
27278.34905
27423.38913
27551.94728
27658.90533
27743.28779
27807.14221
27853.76667
27886.6577
27908.99106
27923.42716
27932.08845
27936.61447
27938.24329
27937.89394
27936.23907
27933.76481
27930.81796
27927.64238
27924.4065
27921.22392
27918.16867
27915.28648
27912.60305
27910.13011
27907.86981
27905.8179
27903.96605
27902.30347
27900.81811
27899.49746
27898.32912
27897.30119
27896.40249
27895.6228
27894.95283
27894.38439
27893.91033
27893.52457
27893.22207
27892.99883
27892.85188
27892.77925
-0.03665111222
-0.02821714389
-0.02894667801
-0.04940045797
-0.1005074638
-0.2047262358
-0.1894018173
0.8734492787
27281.61774
27467.27293
27622.86621
27743.80306
27832.31811
27893.93548
27934.71844
27960.0728
27974.37478
27980.97898
27982.36974
27980.34356
27976.17605
27970.7588
27964.70521
27958.42971
27952.20578
27946.20795
27940.54185
27935.26568
27930.40536
27925.96527
27921.93582
27918.29869
27915.03053
27912.10544
27909.49672
27907.17802
27905.12402
27903.31097
27901.71691
27900.3218
27899.10758
27898.05816
27897.15936
27896.39884
27895.766
27895.25196
27894.84942
27894.55265
27894.35737
27894.26077
-0.05431393589
-0.05417663405
-0.06113232253
-0.08468687525
-0.1182699367
-0.2125849441
-0.1247253482
1.365999201
27291.85501
27539.64154
27728.41395
27861.10627
27948.24359
28001.56667
28031.10428
28044.54577
28047.46105
28043.74814
28036.0711
28026.21647
28015.36058
28004.26168
27993.39469
27983.04428
27973.36865
27964.44286
27956.28833
27948.89263
27942.22285
27936.23447
27930.87733
27926.09939
27921.84928
27918.07773
27914.73855
27911.78904
27909.19019
27906.90673
27904.90699
27903.16278
27901.64915
27900.34422
27899.22894
27898.28692
27897.50422
27896.8692
27896.37238
27896.00632
27895.76553
27895.64638
-0.07232512383
-0.07602577682
-0.08487706143
-0.1055369145
-0.1289389523
-0.1680170437
-0.113308164
1.399826324
27332.34928
27669.15306
27890.01371
28023.95848
28097.99201
28132.99528
28143.59712
28139.55365
28127.18212
28110.48629
28091.95363
28073.09331
28054.79015
28037.53426
28021.56893
28006.98527
27993.78273
27981.90754
27971.27698
27961.79466
27953.35992
27945.87345
27939.24066
27933.37334
27928.19054
27923.61878
27919.59186
27916.05056
27912.94216
27910.21997
27907.84279
27905.77444
27903.98331
27902.44192
27901.12658
27900.01701
27899.09609
27898.34958
27897.76592
27897.33609
27897.05342
27896.91351
-0.08995738195
-0.09493212987
-0.1047271724
-0.1196490838
-0.141642762
-0.1410992899
-0.2155414316
0.8568647683
27488.36038
27912.5378
28138.54872
28246.75255
28286.80208
28288.84991
28270.7528
28242.90154
28211.23549
28179.06664
28148.16748
28119.41555
28093.17429
28069.51773
28048.36267
28029.54616
28012.87043
27998.12849
27985.11829
27973.65004
27963.54965
27954.65974
27946.83951
27939.96379
27933.92184
27928.61608
27923.96068
27919.88034
27916.30912
27913.18943
27910.471
27908.11014
27906.069
27904.31488
27902.81976
27901.55978
27900.51489
27899.66844
27899.007
27898.52006
27898.1999
27898.04142
-0.1064958421
-0.1120310131
-0.1229232934
-0.1357986418
-0.1630696203
-0.1544521245
-0.2771847962
0.0687376015
27951.68439
28352.06709
28505.04867
28537.79854
28513.67554
28464.88709
28407.68522
28350.07774
28295.79978
28246.38225
28202.23719
28163.22913
28128.97516
28099.00077
28072.81875
28049.96709
28030.02512
28012.6185
27997.41845
27984.13841
27972.52977
27962.37729
27953.49483
27945.72146
27938.91801
27932.96411
27927.75555
27923.20213
27919.22575
27915.75881
27912.74286
27910.12739
27907.86893
27905.93013
27904.2791
27902.8888
27901.73656
27900.80365
27900.07493
27899.53862
27899.18604
27899.01151
-0.1211838767
-0.1275007472
-0.1391458654
-0.1536882081
-0.1789111514
-0.1929368955
-0.2821485042
-0.5409406182
28913.37425
29037.59975
28992.09712
28885.87363
28765.29457
28649.37925
28545.04497
28453.93582
28375.50966
28308.42861
28251.17167
28202.28966
28160.49713
28124.69198
28093.94499
28067.47884
28044.64504
28024.90259
28007.79928
27992.95615
27980.05456
27968.82569
27959.04198
27950.51018
27943.06567
27936.56786
27930.89638
27925.94802
27921.6341
27917.87842
27914.61544
27911.78889
27909.35047
27907.2589
27905.479
27903.98108
27902.74024
27901.736
27900.95181
27900.37479
27899.99551
27899.80775
-0.1332061676
-0.1405277881
-0.1525185497
-0.1710082767
-0.1918122429
-0.2448866269
-0.2622281402
-0.8931118126
30298.73436
29892.92332
29540.1729
29248.44161
29012.31077
28822.31709
28669.19087
28545.11529
28443.8758
28360.65099
28291.73092
28234.26036
28186.03149
28145.32494
28110.79048
28081.35845
28056.17399
28034.54801
28015.92053
27999.83303
27985.90739
27973.82976
27963.33812
27954.21255
27946.26763
27939.34631
27933.3152
27928.06059
27923.48538
27919.5065
27916.05283
27913.0635
27910.48644
27908.27726
27906.39825
27904.81758
27903.50867
27902.44964
27901.62285
27901.01459
27900.61481
27900.4169
-0.1417421917
-0.1499687931
-0.1619122032
-0.1839927852
-0.1974506022
-0.2780469515
-0.1831809949
-1.032752637
31687.66714
30697.50613
30027.28866
29555.42969
29213.18916
28958.38052
28764.27848
28613.45207
28494.22212
28398.56484
28320.83796
28256.98749
28204.04233
28159.78508
28122.53317
28090.99044
28064.14461
28041.19525
28021.50229
28004.54867
27989.91292
27977.24863
27966.26905
27956.73523
27948.44695
27941.23561
27934.95859
27929.49488
27924.74148
27920.61055
27917.0271
27913.92707
27911.2558
27908.96675
27907.02044
27905.38363
27904.02855
27902.93236
27902.0767
27901.44727
27901.03359
27900.8288
-0.1461548698
-0.1548830706
-0.1665343442
-0.190170632
-0.1963788368
-0.2849998411
-0.08503986971
-1.002576204
32553.63231
31186.87994
30315.77479
29732.6665
29326.55851
29033.69112
28816.06201
28650.17448
28520.98428
28418.54083
28336.06369
28268.80612
28213.3632
28167.23861
28128.56598
28095.92522
28068.21877
28044.58634
28024.34511
28006.947
27991.94764
27978.98356
27967.75505
27958.01328
27949.55033
27942.1916
27935.78974
27930.21997
27925.37626
27921.16831
27917.51916
27914.36312
27911.6442
27909.31476
27907.33445
27905.66927
27904.29086
27903.17591
27902.30566
27901.66554
27901.24485
27901.03658
-0.1461548594
-0.1548830589
-0.1665343338
-0.1901706263
-0.1963788538
-0.2849998795
-0.08504003027
-1.002576272
32553.63217
31186.87992
30315.77479
29732.6665
29326.5585
29033.6911
28816.06199
28650.17446
28520.98426
28418.54082
28336.06369
28268.80612
28213.36321
28167.23864
28128.56601
28095.92527
28068.21883
28044.58641
28024.34519
28006.94708
27991.94774
27978.98366
27967.75517
27958.0134
27949.55046
27942.19173
27935.78988
27930.22012
27925.37641
27921.16847
27917.51932
27914.36328
27911.64436
27909.31493
27907.33463
27905.66945
27904.29104
27903.17609
27902.30584
27901.66572
27901.24503
27901.03677
-0.1417421612
-0.1499687565
-0.1619121665
-0.1839927565
-0.1974506336
-0.278047039
-0.1831814687
-1.032752379
31687.66677
30697.50609
30027.28868
29555.4297
29213.18913
28958.38046
28764.2784
28613.45199
28494.22205
28398.56479
28320.83793
28256.98749
28204.04237
28159.78515
28122.53328
28090.99058
28064.14479
28041.19546
28021.50252
28004.54893
27989.9132
27977.24894
27966.26938
27956.73559
27948.44734
27941.23601
27934.95901
27929.49532
27924.74193
27920.61102
27917.02758
27913.92756
27911.2563
27908.96726
27907.02097
27905.38417
27904.02909
27902.93291
27902.07725
27901.44782
27901.03415
27900.82936
-0.1332061196
-0.1405277234
-0.1525184726
-0.1710081989
-0.1918122241
-0.2448867045
-0.2622287298
-0.893110044
30298.7341
29892.92343
29540.17301
29248.44164
29012.31072
28822.31698
28669.19073
28545.11514
28443.87567
28360.6509
28291.73088
28234.26036
28186.03156
28145.32507
28110.79066
28081.35869
28056.17428
28034.54835
28015.92092
27999.83347
27985.90787
27973.83028
27963.33868
27954.21316
27946.26826
27939.34698
27933.3159
27928.06132
27923.48613
27919.50728
27916.05364
27913.06432
27910.48729
27908.27812
27906.39912
27904.81847
27903.50957
27902.45055
27901.62376
27901.01551
27900.61574
27900.41783
-0.1211838161
-0.1275006521
-0.1391457318
-0.1536880438
-0.1789109713
-0.1929367974
-0.2821485281
-0.5409343537
28913.37478
29037.60028
28992.09741
28885.8737
28765.29447
28649.37905
28545.04473
28453.93558
28375.50946
28308.42847
28251.17159
28202.28966
28160.49722
28124.69216
28093.94525
28067.47917
28044.64546
28024.90307
28007.79984
27992.95677
27980.05524
27968.82643
27959.04277
27950.51102
27943.06656
27936.5688
27930.89737
27925.94904
27921.63516
27917.87951
27914.61657
27911.79005
27909.35166
27907.2601
27905.48023
27903.98232
27902.74151
27901.73728
27900.95309
27900.37609
27899.99681
27899.80905
-0.1064957772
-0.1120308893
-0.1229230988
-0.1357983655
-0.1630692224
-0.1544516342
-0.2771837123
0.068749697
27951.68645
28352.0682
28505.04913
28537.79859
28513.67533
28464.88675
28407.68484
28350.07737
28295.79948
28246.38204
28202.23708
28163.22913
28128.97527
28099.00099
28072.81909
28049.96752
28030.02566
28012.61913
27997.41916
27984.13921
27972.53065
27962.37824
27953.49585
27945.72255
27938.91917
27932.96532
27927.75682
27923.20345
27919.22712
27915.76022
27912.74431
27910.12888
27907.87045
27905.93168
27904.28068
27902.89041
27901.73819
27900.80529
27900.07659
27899.54029
27899.18772
27899.01319
-0.08995732239
-0.09493198513
-0.1047269243
-0.1196487034
-0.1416422187
-0.1410985186
-0.215540157
0.8568790985
27488.36381
27912.53922
28138.54913
28246.7524
28286.80163
28288.84933
28270.75221
28242.90101
28211.23506
28179.06634
28148.16732
28119.41554
28093.17443
28069.51801
28048.36308
28029.5467
28012.87109
27998.12927
27985.11917
27973.65103
27963.55073
27954.66092
27946.84077
27939.96512
27933.92326
27928.61757
27923.96223
27919.88195
27916.3108
27913.19115
27910.47278
27908.11197
27906.07086
27904.31678
27902.8217
27901.56175
27900.51688
27899.67046
27899.00903
27898.52211
27898.20195
27898.04347
-0.07232507898
-0.07602562556
-0.08487677262
-0.1055364492
-0.1289382361
-0.1680161042
-0.1133075064
1.399834944
27332.35123
27669.15383
27890.01363
28023.95787
28097.99114
28132.99435
28143.59626
28139.55291
28127.18155
28110.4859
28091.95343
28073.0933
28054.79031
28037.5346
28021.56943
28006.98592
27993.78353
27981.90846
27971.27803
27961.79584
27953.3612
27945.87485
27939.24215
27933.37493
27928.19222
27923.62054
27919.5937
27916.05248
27912.94415
27910.22202
27907.8449
27905.7766
27903.98552
27902.44418
27901.12888
27900.01934
27899.09845
27898.35196
27897.76833
27897.33851
27897.05585
27896.91595
-0.05431391411
-0.05417649517
-0.06113202061
-0.08468636471
-0.1182690662
-0.2125838553
-0.124724176
1.366004529
27291.85546
27539.64134
27728.41303
27861.10493
27948.24212
28001.56528
28031.10306
28044.54478
28047.46032
28043.74765
28036.07085
28026.21645
28015.36077
28004.26208
27993.39528
27983.04505
27973.36958
27964.44395
27956.28957
27948.894
27942.22435
27936.23609
27930.87906
27926.10124
27921.85122
27918.07978
27914.74069
27911.79126
27909.19249
27906.9091
27904.90943
27903.16528
27901.65171
27900.34683
27899.2316
27898.28962
27897.50695
27896.87195
27896.37516
27896.00912
27895.76834
27895.64919
-0.03665111875
-0.02821703506
-0.02894640763
-0.04939995757
-0.1005065933
-0.2047252809
-0.189400695
0.8734557994
27281.61823
27467.27185
27622.86416
27743.80069
27832.31584
27893.9335
27934.71682
27960.07155
27974.37387
27980.9784
27982.36946
27980.34355
27976.1763
27970.75928
27964.7059
27958.4306
27952.20685
27946.2092
27940.54327
27935.26725
27930.40707
27925.96712
27921.9378
27918.3008
27915.03275
27912.10777
27909.49915
27907.18054
27905.12663
27903.31367
27901.71968
27900.32464
27899.11049
27898.06113
27897.16238
27896.4019
27895.76911
27895.2551
27894.85259
27894.55583
27894.36056
27894.26397
-0.02015374129
0.002877338704
0.01935427589
0.0116860819
-0.03398778101
-0.1166580046
-0.1988555982
0.2831474755
27278.35093
27423.3866
27551.94341
27658.90153
27743.28454
27807.13959
27853.76464
27886.6562
27908.99001
27923.42651
27932.08815
27936.61449
27938.24359
27937.8945
27936.23988
27933.76584
27930.81919
27927.6438
27924.40811
27921.2257
27918.17061
27915.28857
27912.60528
27910.13248
27907.87231
27905.82052
27903.96878
27902.3063
27900.82104
27899.50049
27898.33223
27897.30438
27896.40576
27895.62612
27894.95622
27894.38783
27893.91381
27893.52809
27893.22561
27893.0024
27892.85547
27892.78284
-0.006467345623
0.03778181775
0.0824715315
0.09460353199
0.07805818356
0.0009579909413
-0.1378473771
-0.08599684539
27277.06723
27394.76113
27502.60218
27596.56256
27674.77515
27737.57493
27786.54785
27823.80153
27851.50655
27871.65237
27885.94469
27895.78481
27902.29094
27906.33686
27908.59468
27909.57496
27909.66145
27909.13984
27908.22074
27907.05789
27905.76215
27904.41232
27903.06337
27901.75264
27900.50461
27899.33436
27898.2503
27897.25604
27896.35196
27895.53624
27894.80564
27894.15615
27893.58333
27893.08269
27892.64985
27892.28072
27891.97158
27891.71917
27891.52074
27891.37406
27891.27743
27891.22975
0.001602727519
0.06883516454
0.1405430047
0.1731213403
0.1541154986
0.06692233096
-0.03982395349
-0.1497828116
27277.26606
27375.13611
27467.12897
27549.96055
27621.67254
27681.83479
27731.05031
27770.4968
27801.58413
27825.73374
27844.25535
27858.29093
27868.80013
27876.56879
27882.22837
27886.27911
27889.11301
27891.03448
27892.27823
27893.02406
27893.40887
27893.5363
27893.48432
27893.31122
27893.06025
27892.76319
27892.44318
27892.11679
27891.79574
27891.48809
27891.1992
27890.93251
27890.69002
27890.47277
27890.2811
27890.11494
27889.97394
27889.85763
27889.76547
27889.69701
27889.65183
27889.62966
-0.001122162884
0.08177606318
0.1647977424
0.2002845024
0.1634020302
0.08700239931
0.05541536751
-0.04357831283
27277.07965
27360.84217
27440.80775
27514.47066
27580.11471
27637.03877
27685.32097
27725.55153
27758.60042
27785.44441
27807.05348
27824.32487
27838.05126
27848.91113
27857.47214
27864.20132
27869.47813
27873.60795
27876.83475
27879.35235
27881.31407
27882.84078
27884.0275
27884.9488
27885.66312
27886.21614
27886.64361
27886.97342
27887.22736
27887.42242
27887.57184
27887.68594
27887.77277
27887.83856
27887.88817
27887.92534
27887.95297
27887.97327
27887.98788
27887.99804
27888.00459
27888.00808
-0.02446026292
0.0577058674
0.1335067759
0.1680541061
0.1470441549
0.1055412605
0.1164431985
0.07477770358
27276.36736
27350.0099
27420.78334
27486.99472
27547.27321
27600.88233
27647.64216
27687.78779
27721.82205
27750.39084
27774.19035
27793.90495
27810.17008
27823.5535
27834.54889
27843.57702
27850.99135
27857.08554
27862.10155
27866.2376
27869.65538
27872.48634
27874.8372
27876.79451
27878.42842
27879.79582
27880.94288
27881.90712
27882.71908
27883.40363
27883.98105
27884.46794
27884.87785
27885.22186
27885.509
27885.74663
27885.94069
27886.09594
27886.21611
27886.30404
27886.36179
27886.39067
-0.07831110526
-0.001170651166
0.06318548225
0.1218107248
0.1491275062
0.1354110132
0.1373506168
0.1432263012
27276.30697
27341.82834
27405.3185
27465.44864
27521.09851
27571.57338
27616.57655
27656.13507
27690.50931
27720.10708
27745.4129
27766.9354
27785.17159
27800.58495
27813.59393
27824.56758
27833.82579
27841.64236
27848.24936
27853.84221
27858.58458
27862.61309
27866.04159
27868.96476
27871.46138
27873.597
27875.42616
27876.99433
27878.33945
27879.4932
27880.48207
27881.32821
27882.05014
27882.66333
27883.18066
27883.61281
27883.96857
27884.25505
27884.47794
27884.6416
27884.7492
27884.80284
-0.1235386758
-0.04672373853
0.01967063301
0.1188022297
0.172141187
0.1654100843
0.1433535741
0.1663717836
27276.29519
27335.51012
27393.2124
27448.38088
27500.09704
27547.73478
27590.95473
27629.66628
27663.97309
27694.11561
27720.41935
27743.25292
27762.99677
27780.02169
27794.67528
27807.27456
27818.10289
27827.40976
27835.41239
27842.29837
27848.2287
27853.34097
27857.7524
27861.56268
27864.85652
27867.70581
27870.17162
27872.3058
27874.15242
27875.74892
27877.1271
27878.31398
27879.33247
27880.20198
27880.93883
27881.55674
27882.06707
27882.47912
27882.80036
27883.03657
27883.19197
27883.26933
-0.1213980985
-0.0176944669
0.06614570221
0.1643918263
0.1913343609
0.1810890123
0.1584048808
0.1760879916
27276.29583
27330.55518
27383.63959
27434.76415
27483.17277
27528.31299
27569.84065
27607.60192
27641.60116
27671.96318
27698.89642
27722.66077
27743.54163
27761.83058
27777.81181
27791.75342
27803.90242
27814.48238
27823.69308
27831.71121
27838.69195
27844.77076
27850.06546
27854.67819
27858.69734
27862.19927
27865.24989
27867.90606
27870.21676
27872.2242
27873.96469
27875.46941
27876.7651
27877.87459
27878.81729
27879.60959
27880.26519
27880.79536
27881.20919
27881.51372
27881.71414
27881.81386
-0.04778907506
0.07141597024
0.1586530321
0.2118553673
0.2045039962
0.1878224914
0.1802433622
0.1892291525
27276.30745
27326.63625
27376.02643
27423.86251
27469.51609
27512.50307
27552.49248
27589.29938
27622.86646
27653.23974
27680.5428
27704.95264
27726.67905
27745.94792
27762.98878
27778.02578
27791.27189
27802.92523
27813.16731
27822.16248
27830.05818
27836.98575
27843.06159
27848.38841
27853.05653
27857.14521
27860.72382
27863.85299
27866.5856
27868.9677
27871.03933
27872.83518
27874.38523
27875.7153
27876.84747
27877.80049
27878.5901
27879.22932
27879.72867
27880.09635
27880.33841
27880.45879
0.05029438596
0.1461552922
0.2159438505
0.2300479781
0.2145687067
0.2002122623
0.1979339034
0.2017015419
27276.31802
27323.52839
27369.96733
27415.14281
27458.52545
27499.69026
27538.3265
27574.2365
27607.32559
27637.58674
27665.08274
27689.92844
27712.2746
27732.29399
27750.17035
27766.08988
27780.23502
27792.78025
27803.88943
27813.71423
27822.39356
27830.05353
27836.80784
27842.75844
27847.99632
27852.60239
27856.64839
27860.19769
27863.30617
27866.02293
27868.39102
27870.44802
27872.22666
27873.75524
27875.05814
27876.15614
27877.06674
27877.8045
27878.38118
27878.80599
27879.08571
27879.22481
0.1104808953
0.1688586318
0.2246804316
0.2301347462
0.220545327
0.2126282204
0.2095131745
0.2103107532
27276.32395
27321.07438
27365.17175
27408.21557
27449.7523
27489.4057
27526.88657
27561.99446
27594.61275
27624.6991
27652.2733
27677.40426
27700.19748
27720.78373
27739.3095
27755.92916
27770.79889
27784.07224
27795.89687
27806.41243
27815.74933
27824.02803
27831.35889
27837.8423
27843.56904
27848.62082
27853.07084
27856.98444
27860.4197
27863.42809
27866.05506
27868.34053
27870.31944
27872.02219
27873.47506
27874.70052
27875.7176
27876.54211
27877.18692
27877.66208
27877.97501
27878.13061
0.1147919615
0.1595689625
0.2126274733
0.2220795595
0.2206987508
0.2170043209
0.2154131448
0.2140032592
27276.32567
27319.16242
27361.4298
27402.79522
27442.86225
27481.29351
27517.81953
27552.24201
27584.43195
27614.32385
27641.90745
27667.21827
27690.32785
27711.33458
27730.35547
27747.51912
27762.95999
27776.81385
27789.21429
27800.29026
27810.1643
27818.95142
27826.75848
27833.68393
27839.81787
27845.24217
27850.03091
27854.25073
27857.96132
27861.21595
27864.06187
27866.54088
27868.68968
27870.54035
27872.12071
27873.45463
27874.56236
27875.4608
27876.16368
27876.68177
27877.02303
27877.1927
0.09201387544
0.1398946942
0.1914781463
0.2086020441
0.2157028399
0.2167341337
0.2176373995
0.2143720719
27276.32621
27317.71298
27358.58997
27398.67311
27437.60786
27475.08647
27510.85599
27544.72216
27576.54934
27606.25713
27633.81473
27659.23396
27682.56161
27703.87189
27723.25935
27740.83261
27756.70891
27771.00972
27783.8571
27795.37099
27805.6672
27814.8559
27823.04073
27830.3182
27836.77745
27842.50025
27847.56109
27852.02745
27855.96016
27859.41375
27862.43689
27865.07273
27867.35936
27869.33015
27871.01413
27872.43627
27873.61778
27874.57641
27875.32659
27875.87967
27876.24401
27876.42515
0.06733450066
0.1209748819
0.1716587903
0.1966568228
0.2101123529
0.2151671718
0.2179759747
0.2133581377
27276.32547
27316.66926
27356.54413
27395.6993
27433.80956
27470.5885
27505.79581
27539.24141
27570.7863
27600.34084
27627.86072
27653.34166
27676.81325
27698.3326
27717.97811
27735.84378
27752.03413
27766.65987
27779.83428
27791.67036
27802.27859
27811.76529
27820.2314
27827.77177
27834.47463
27840.42146
27845.68693
27850.33903
27854.43933
27858.04327
27861.20046
27863.95507
27866.34618
27868.40809
27870.17073
27871.65986
27872.89745
27873.90183
27874.68798
27875.26766
27875.64957
27875.83943
0.05255320898
0.1090840015
0.1590431002
0.1886184455
0.2057211514
0.2134349051
0.2175572659