/*--------------------------------*- C++ -*----------------------------------*\
  =========                 |
  \\      /  F ield         | OpenFOAM: The Open Source CFD Toolbox
   \\    /   O peration     | Website:  https://openfoam.org
    \\  /    A nd           | Version:  6
     \\/     M anipulation  |
\*---------------------------------------------------------------------------*/
FoamFile
{
    version     2.0;
    format      ascii;
    class       surfaceScalarField;
    location    "0.05";
    object      phi;
}
// * * * * * * * * * * * * * * * * * * * * * * * * * * * * * * * * * * * * * //

dimensions      [0 3 -1 0 0 0 0];

internalField   nonuniform List<scalar> 
4900
(
-4.279315608e-08
-6.088091226e-09
-3.482266433e-08
-7.970491749e-09
-2.654707381e-08
-8.275590527e-09
-1.870103506e-08
-7.846038769e-09
-1.143384526e-08
-7.26718984e-09
-4.971721767e-09
-6.462123541e-09
-1.058701353e-10
-4.86585169e-09
3.367125372e-17
-1.058702192e-10
-3.92397885e-21
-8.121270226e-25
-3.89062307e-21
-3.335578047e-23
-3.825422468e-21
-6.520366997e-23
-3.730542946e-21
-9.488642356e-23
-3.609103472e-21
-1.214499779e-22
-3.464913772e-21
-1.442037107e-22
-3.302211818e-21
-1.627194315e-22
-3.125409328e-21
-1.768234002e-22
-2.93886317e-21
-1.865704638e-22
-2.746686971e-21
-1.922038602e-22
-2.55261051e-21
-1.941074299e-22
-2.359887986e-21
-1.927567497e-22
-2.171251201e-21
-1.886742093e-22
-1.988900556e-21
-1.823912058e-22
-1.814525278e-21
-1.744189106e-22
-1.649344195e-21
-1.652277128e-22
-1.494159218e-21
-1.552345313e-22
-1.349414931e-21
-1.447966841e-22
-1.215259261e-21
-1.342108253e-22
-1.091601583e-21
-1.237155048e-22
-9.781659108e-22
-1.13496079e-22
-8.745378616e-22
-1.036909406e-22
-7.8020486e-22
-9.439827996e-23
-6.945896054e-22
-8.568281903e-23
-6.170772033e-22
-7.758214911e-23
-5.470365712e-22
-7.011245589e-23
-4.838368351e-22
-6.327352822e-23
-4.26859459e-22
-5.705302656e-23
-3.755068164e-22
-5.143003909e-23
-3.292078599e-22
-4.637798545e-23
-2.874214623e-22
-4.186694362e-23
-2.496379275e-22
-3.786548137e-23
-2.153790845e-22
-3.434207242e-23
-1.841973062e-22
-3.126617171e-23
-1.556737265e-22
-2.860901735e-23
-1.294158689e-22
-2.63442191e-23
-1.050548446e-22
-2.444818865e-23
-8.224221858e-23
-2.290047169e-23
-6.064654624e-23
-2.168407757e-23
-3.994933135e-23
-2.078605772e-23
-1.983927904e-23
-2.019921063e-23
-1.992863014e-23
-4.432282332e-08
-1.366930237e-08
-3.533848192e-08
-1.695483321e-08
-2.638186224e-08
-1.723221029e-08
-1.826430926e-08
-1.596359182e-08
-1.097959312e-08
-1.455190601e-08
-4.666553604e-09
-1.277516301e-08
-5.435483009e-11
-9.478050367e-09
7.989214759e-18
-1.602249041e-10
-3.956709431e-21
-4.250931417e-25
-3.9224652e-21
-6.760613976e-23
-3.85510045e-21
-1.325812629e-22
-3.757103044e-21
-1.929032901e-22
-3.631855059e-21
-2.467237275e-22
-3.483428618e-21
-2.926621119e-22
-3.316316053e-21
-3.298700871e-22
-3.135157599e-21
-3.580260092e-22
-2.944498476e-21
-3.772797289e-22
-2.748592909e-21
-3.881654736e-22
-2.551262432e-21
-3.91499762e-22
-2.355808093e-21
-3.882786511e-22
-2.164970744e-21
-3.795847151e-22
-1.980930605e-21
-3.665099767e-22
-1.805336157e-21
-3.500973362e-22
-1.639352793e-21
-3.313002633e-22
-1.483722847e-21
-3.109587305e-22
-1.338830258e-21
-2.897884406e-22
-1.204764862e-21
-2.683801467e-22
-1.081382844e-21
-2.4720604e-22
-9.683612586e-22
-2.266306053e-22
-8.652455202e-22
-2.069238667e-22
-7.71489583e-22
-1.882754713e-22
-6.864890127e-22
-1.708085244e-22
-6.096075056e-22
-1.545924823e-22
-5.401975786e-22
-1.396547062e-22
-4.77616226e-22
-1.25990504e-22
-4.212363359e-22
-1.135716388e-22
-3.704546107e-22
-1.023533818e-22
-3.246966587e-22
-9.228024397e-23
-2.834198404e-22
-8.329054855e-23
-2.461143641e-22
-7.532001388e-23
-2.123030384e-22
-6.830451106e-23
-1.815400185e-22
-6.218214726e-23
-1.534088092e-22
-5.689480954e-23
-1.275197353e-22
-5.23892865e-23
-1.03507042e-22
-4.861806903e-23
-8.102575932e-23
-4.553991765e-23
-5.974849032e-23
-4.312026901e-23
-3.936250978e-23
-4.133150504e-23
-1.956869405e-23
-4.015282919e-23
-3.956786722e-23
-4.622962521e-08
-2.481956505e-08
-3.523176651e-08
-2.795269192e-08
-2.535777102e-08
-2.71062058e-08
-1.706020037e-08
-2.426116248e-08
-1.00154429e-08
-2.159666353e-08
-4.129915875e-09
-1.866069011e-08
-3.46692709e-11
-1.357329707e-08
2.642742795e-17
-1.948942084e-10
-4.024203944e-21
-6.245765708e-25
-3.987431075e-21
-1.043840286e-22
-3.915413254e-21
-2.046097815e-22
-3.81091659e-21
-2.974163704e-22
-3.677789207e-21
-3.798730027e-22
-3.520634987e-21
-4.498436232e-22
-3.344472723e-21
-5.060649869e-22
-3.154413986e-21
-5.481226719e-22
-2.955388298e-21
-5.763485663e-22
-2.751932172e-21
-5.916699017e-22
-2.548046728e-21
-5.954385769e-22
-2.347119612e-21
-5.892641209e-22
-2.151901216e-21
-5.74866349e-22
-1.964522728e-21
-5.539564833e-22
-1.786543281e-21
-5.281494711e-22
-1.619014837e-21
-4.989059462e-22
-1.46255551e-21
-4.674997235e-22
-1.317424325e-21
-4.350055867e-22
-1.183592578e-21
-4.023020139e-22
-1.06080876e-21
-3.700839935e-22
-9.486554691e-22
-3.388819009e-22
-8.465977413e-22
-3.090833151e-22
-7.540229845e-22
-2.809555076e-22
-6.702731087e-22
-2.546670774e-22
-5.946697074e-22
-2.303077933e-22
-5.265332366e-22
-2.079061509e-22
-4.651971384e-22
-1.874444684e-22
-4.100178028e-22
-1.688715584e-22
-3.603811658e-22
-1.521131433e-22
-3.15706643e-22
-1.370802522e-22
-2.754489862e-22
-1.236758702e-22
-2.390985528e-22
-1.11800108e-22
-2.06180385e-22
-1.013541504e-22
-1.762524155e-22
-9.224321244e-23
-1.489030493e-22
-8.437870817e-23
-1.237483122e-22
-7.767980389e-23
-1.004287183e-22
-7.207450186e-23
-7.860597293e-23
-6.750037057e-23
-5.795962256e-23
-6.390500515e-23
-3.818375197e-23
-6.124624828e-23
-1.898364129e-23
-5.949210455e-23
-5.86202323e-23
-4.748708203e-08
-4.307662427e-08
-3.240144906e-08
-4.30383249e-08
-2.144189585e-08
-3.806575913e-08
-1.356477198e-08
-3.213828638e-08
-7.926448957e-09
-2.723498657e-08
-3.212472994e-09
-2.337466608e-08
-6.807862705e-13
-1.67850893e-08
1.172293599e-17
-1.955749609e-10
-4.128308654e-21
-7.563075494e-25
-4.087641301e-21
-1.450563216e-22
-4.008205215e-21
-2.840563733e-22
-3.893362555e-21
-4.122751601e-22
-3.747753518e-21
-5.255035653e-22
-3.576854278e-21
-6.207697089e-22
-3.386532062e-21
-6.96419319e-22
-3.182644507e-21
-7.520475582e-22
-2.970716382e-21
-7.883191747e-22
-2.755708882e-21
-8.067249645e-22
-2.54188086e-21
-8.093191627e-22
-2.332730385e-21
-7.984720707e-22
-2.130999415e-21
-7.76659611e-22
-1.938723011e-21
-7.462998943e-22
-1.757306118e-21
-7.096379745e-22
-1.587613983e-21
-6.686741808e-22
-1.430065761e-21
-6.251284096e-22
-1.284724224e-21
-5.804318247e-22
-1.151377207e-21
-5.357378333e-22
-1.029608604e-21
-4.919453592e-22
-9.18858219e-22
-4.497288644e-22
-8.184707766e-22
-4.095710007e-22
-7.277350033e-22
-3.717950342e-22
-6.459139675e-22
-3.365952178e-22
-5.722679771e-22
-3.040640768e-22
-5.060712988e-22
-2.742161448e-22
-4.466238578e-22
-2.47008078e-22
-3.932589435e-22
-2.223553224e-22
-3.453477903e-22
-2.001456524e-22
-3.023017622e-22
-1.802499658e-22
-2.635727306e-22
-1.625307374e-22
-2.286521218e-22
-1.468485218e-22
-1.970690046e-22
-1.330668595e-22
-1.683875076e-22
-1.210559044e-22
-1.422037854e-22
-1.106950431e-22
-1.181426984e-22
-1.018747354e-22
-9.585432526e-23
-9.449776428e-23
-7.501039696e-23
-8.848004524e-23
-5.530070587e-23
-8.375111117e-23
-3.642949667e-23
-8.025435136e-23
-1.811171268e-23
-7.794706994e-23
-7.680050648e-23
-5.763929569e-08
-7.038503794e-08
-3.357875267e-08
-6.709886789e-08
-1.700031805e-08
-5.464419387e-08
-7.117504792e-09
-4.202109975e-08
-3.656951261e-09
-3.069554014e-08
-1.557804574e-09
-2.547381278e-08
6.349098994e-11
-1.84063849e-08
-1.853985715e-17
-1.320839718e-10
-4.272880553e-21
-5.547009804e-25
-4.2266183e-21
-1.913235106e-22
-4.136402993e-21
-3.74282172e-22
-4.006576118e-21
-5.421181424e-22
-3.843011396e-21
-6.890897843e-22
-3.652501861e-21
-8.113060562e-22
-3.442163615e-21
-9.067896411e-22
-3.218923563e-21
-9.753248957e-22
-2.989132426e-21
-1.018152744e-21
-2.758314914e-21
-1.037589982e-21
-2.53104613e-21
-1.036640447e-21
-2.310930001e-21
-1.018645608e-21
-2.100650911e-21
-9.870009197e-22
-1.902071081e-21
-9.449466513e-22
-1.716350915e-21
-8.954296679e-22
-1.544075361e-21
-8.410257453e-22
-1.385374938e-21
-7.839092024e-22
-1.240034724e-21
-7.258566409e-22
-1.107588103e-21
-6.682731525e-22
-9.873945212e-22
-6.122315951e-22
-8.787019709e-22
-5.585178799e-22
-7.806957812e-22
-5.076773162e-22
-6.925356498e-22
-4.600587973e-22
-6.133828996e-22
-4.15854947e-22
-5.424198291e-22
-3.75137311e-22
-4.7886281e-22
-3.378863465e-22
-4.219705419e-22
-3.040163783e-22
-3.710486289e-22
-2.733959455e-22
-3.254514169e-22
-2.458640777e-22
-2.845818375e-22
-2.21243085e-22
-2.478898335e-22
-1.993484287e-22
-2.14869811e-22
-1.799961985e-22
-1.850574471e-22
-1.630086621e-22
-1.580260992e-22
-1.482182918e-22
-1.333829922e-22
-1.354706053e-22
-1.107653072e-22
-1.246261055e-22
-8.983625425e-23
-1.155615451e-22
-7.028118013e-23
-1.081707022e-22
-5.18037328e-23
-1.023648077e-22
-3.412207161e-23
-9.807273862e-23
-1.696507811e-23
-9.524107587e-23
-9.38341401e-23
-8.730269451e-08
-9.804309529e-08
-5.454294426e-08
-9.985861813e-08
-2.538419919e-08
-8.380293895e-08
-4.92054392e-09
-6.248475512e-08
1.607958665e-09
-3.72240428e-08
9.316399717e-10
-2.479749411e-08
1.225769883e-10
-1.759732194e-08
-1.042189338e-17
-9.507065473e-12
-4.463642185e-21
4.348293884e-25
-4.409544173e-21
-2.454264611e-22
-4.3042103e-21
-4.796265385e-22
-4.153528325e-21
-6.92816226e-22
-3.965217787e-21
-8.774218225e-22
-3.74798436e-21
-1.028566299e-21
-3.510705057e-21
-1.144101024e-21
-3.261762972e-21
-1.224304271e-21
-3.008584658e-21
-1.271373495e-21
-2.757382063e-21
-1.28884009e-21
-2.513068245e-21
-1.281006773e-21
-2.279301493e-21
-1.252469775e-21
-2.05861136e-21
-1.207753281e-21
-1.852566963e-21
-1.151057984e-21
-1.661957853e-21
-1.086110314e-21
-1.486967693e-21
-1.016091925e-21
-1.327329396e-21
-9.436278784e-22
-1.182456596e-21
-8.70814053e-22
-1.051550472e-21
-7.992679836e-22
-9.33683531e-22
-7.301912004e-22
-8.27863151e-22
-6.64434735e-22
-7.330782255e-22
-6.025623773e-22
-6.483321576e-22
-5.449085069e-22
-5.726651668e-22
-4.916289267e-22
-5.051684372e-22
-4.427442142e-22
-4.449921856e-22
-3.981757904e-22
-3.913493054e-22
-3.577753005e-22
-3.435158738e-22
-3.213480967e-22
-3.008295027e-22
-2.886716715e-22
-2.626862627e-22
-2.59509874e-22
-2.285367156e-22
-2.336236723e-22
-1.978814379e-22
-2.107791391e-22
-1.702663052e-22
-1.907532421e-22
-1.45277716e-22
-1.733379285e-22
-1.225378767e-22
-1.583429074e-22
-1.017002163e-22
-1.455974578e-22
-8.244496799e-23
-1.349515272e-22
-6.447493038e-23
-1.262763278e-22
-4.751139689e-23
-1.194645945e-22
-3.129023065e-23
-1.14430634e-22
-1.555805345e-23
-1.111102679e-22
-1.094607578e-22
-1.149779343e-07
-1.112155787e-07
-8.744210213e-08
-1.273944504e-07
-5.199917122e-08
-1.192458698e-07
-1.791244546e-08
-9.657148091e-08
1.881531959e-09
-5.701802028e-08
3.086051972e-09
-2.600201416e-08
7.874609997e-11
-1.459001606e-08
1.523981679e-17
6.923897583e-11
-4.709033255e-21
1.00516883e-24
-4.643700533e-21
-3.10764123e-22
-4.51736218e-21
-6.059753877e-22
-4.338109561e-21
-8.720849587e-22
-4.116351522e-21
-1.099201366e-21
-3.863520461e-21
-1.281424182e-21
-3.590919264e-21
-1.416734311e-21
-3.308849819e-21
-1.506411016e-21
-3.026072732e-21
-1.55419303e-21
-2.749571693e-21
-1.565388654e-21
-2.484553839e-21
-1.546077147e-21
-2.234605978e-21
-1.502475065e-21
-2.001934674e-21
-1.440486826e-21
-1.787635185e-21
-1.365424426e-21
-1.591952578e-21
-1.281864473e-21
-1.414514116e-21
-1.193606424e-21
-1.254523652e-21
-1.10369874e-21
-1.11091653e-21
-1.014505806e-21
-9.824779417e-22
-9.277952988e-22
-8.679298833e-22
-8.448319429e-22
-7.659924649e-22
-7.664686489e-22
-6.754251345e-22
-6.932298643e-22
-5.950526812e-22
-6.253846233e-22
-5.237800626e-22
-5.630085558e-22
-4.60599273e-22
-5.060351994e-22
-4.04590724e-22
-4.54297554e-22
-3.549209905e-22
-4.075610985e-22
-3.108382693e-22
-3.655495602e-22
-2.716665115e-22
-3.279646748e-22
-2.367988928e-22
-2.945010646e-22
-2.056910684e-22
-2.648572159e-22
-1.778545018e-22
-2.387433914e-22
-1.528500412e-22
-2.158871724e-22
-1.302818421e-22
-1.960371974e-22
-1.097916777e-22
-1.789655567e-22
-9.105364239e-23
-1.644692066e-22
-7.376923275e-23
-1.523706919e-22
-5.766276904e-23
-1.425183999e-22
-4.247711582e-23
-1.347865207e-22
-2.796965104e-23
-1.290748469e-22
-1.390843674e-23
-1.253085155e-22
-1.234377687e-22
-1.110026668e-07
-1.02486891e-07
-1.041995156e-07
-1.341976016e-07
-7.888923791e-08
-1.445561477e-07
-4.232810362e-08
-1.331326152e-07
-8.304234479e-09
-9.104188945e-08
3.042140755e-09
-3.734838943e-08
-1.023271847e-10
-1.144554814e-08
1.778769189e-17
-3.30881987e-11
-5.019976456e-21
3.961423089e-25
-4.938853862e-21
-3.918916579e-22
-4.783422379e-21
-7.614173699e-22
-4.565196493e-21
-1.090326964e-21
-4.298564236e-21
-1.365855133e-21
-3.998836956e-21
-1.58117829e-21
-3.68061462e-21
-1.734988744e-21
-3.356658326e-21
-1.830404621e-21
-3.037298704e-21
-1.87359511e-21
-2.730291225e-21
-1.872443668e-21
-2.440981241e-21
-1.835439665e-21
-2.172644268e-21
-1.77086948e-21
-1.926895133e-21
-1.686298217e-21
-1.704094211e-21
-1.588292315e-21
-1.503709758e-21
-1.482320495e-21
-1.324618245e-21
-1.372773992e-21
-1.16533955e-21
-1.263057851e-21
-1.024212343e-21
-1.155717662e-21
-8.995188484e-22
-1.05257754e-21
-7.895692109e-22
-9.548742845e-22
-6.927550259e-22
-8.6337935e-22
-6.075802726e-22
-7.785047952e-22
-5.326762829e-22
-7.003922975e-22
-4.66805873e-22
-6.289859981e-22
-4.088604568e-22
-5.640908334e-22
-3.578528891e-22
-5.054183588e-22
-3.129079627e-22
-4.526221121e-22
-2.732518588e-22
-4.053244293e-22
-2.382013955e-22
-3.631364068e-22
-2.071535969e-22
-3.256724581e-22
-1.795758833e-22
-2.925606719e-22
-1.549970273e-22
-2.634499563e-22
-1.329989278e-22
-2.380147646e-22
-1.132091872e-22
-2.159580307e-22
-9.529444117e-23
-1.9701281e-22
-7.895437035e-23
-1.80943013e-22
-6.391631232e-23
-1.675435265e-22
-4.993038934e-23
-1.566399524e-22
-3.676506808e-23
-1.480881356e-22
-2.420307111e-23
-1.417736122e-22
-1.203756584e-23
-1.37611074e-22
-1.355439185e-22
-7.273812695e-08
-7.4929765e-08
-9.035249886e-08
-1.165832297e-07
-8.703803622e-08
-1.478706104e-07
-6.254445137e-08
-1.576262002e-07
-2.549573042e-08
-1.280906104e-07
-8.139912518e-10
-6.203012862e-08
-4.208192926e-10
-1.183872015e-08
6.898236322e-18
-4.539074797e-10
-5.411902675e-21
-1.809006577e-24
-5.308302075e-21
-4.954971989e-22
-5.112268258e-21
-9.574616886e-22
-4.840690568e-21
-1.361920777e-21
-4.513880831e-21
-1.692686386e-21
-4.152662947e-21
-1.94242301e-21
-3.776061275e-21
-2.11162252e-21
-3.399888161e-21
-2.206615054e-21
-3.036189644e-21
-2.237336096e-21
-2.693328598e-21
-2.21535226e-21
-2.376448835e-21
-2.152371973e-21
-2.088105802e-21
-2.059269969e-21
-1.828916548e-21
-1.945549742e-21
-1.598144327e-21
-1.819131519e-21
-1.394180266e-21
-1.686356141e-21
-1.214914822e-21
-1.552115507e-21
-1.058008476e-21
-1.42004463e-21
-9.210784015e-22
-1.292732404e-21
-8.018194495e-22
-1.171925257e-21
-6.980763371e-22
-1.05871012e-21
-6.078811809e-22
-9.536710419e-22
-5.294674975e-22
-8.570186763e-22
-4.612690104e-22
-7.686944896e-22
-4.019092685e-22
-6.884527932e-22
-3.501862524e-22
-6.159240885e-22
-3.050547565e-22
-5.506631132e-22
-2.656083377e-22
-4.921846397e-22
-2.310619106e-22
-4.399896434e-22
-2.007355893e-22
-3.935840186e-22
-1.740400571e-22
-3.524916074e-22
-1.504635417e-22
-3.162629517e-22
-1.295603518e-22
-2.84480877e-22
-1.109408605e-22
-2.567637706e-22
-9.426278728e-23
-2.327672182e-22
-7.922361963e-23
-2.121845064e-22
-6.555401273e-23
-1.947463767e-22
-5.301201812e-23
-1.802203186e-22
-4.137800078e-23
-1.684096198e-22
-3.04501186e-23
-1.591523315e-22
-2.004025018e-23
-1.523202688e-22
-9.970269316e-24
-1.478181277e-22
-1.455827813e-22
-2.124987131e-08
-3.960567158e-08
-5.35473268e-08
-8.42857742e-08
-7.321821299e-08
-1.281997242e-07
-6.948527137e-08
-1.613591419e-07
-4.133897619e-08
-1.562369057e-07
-8.533496826e-09
-9.4835608e-08
-2.443459796e-10
-2.012787105e-08
1.565316887e-18
-6.982534829e-10
-5.906665135e-21
-4.757815732e-24
-5.770152918e-21
-6.320143585e-22
-5.516646524e-21
-1.210978587e-21
-5.171419509e-21
-1.707163918e-21
-4.763619858e-21
-2.100507559e-21
-4.321894016e-21
-2.384175693e-21
-3.871103382e-21
-2.562445266e-21
-3.430666937e-21
-2.647088825e-21
-3.014264265e-21
-2.653781246e-21
-2.630402615e-21
-2.599261468e-21
-2.283394295e-21
-2.499432849e-21
-1.974425136e-21
-2.368296596e-21
-1.70253e-21
-2.217507162e-21
-1.46539339e-21
-2.056335125e-21
-1.259957794e-21
-1.891863337e-21
-1.082856883e-21
-1.729292504e-21
-9.307049781e-22
-1.572276985e-21
-8.002766886e-22
-1.423245377e-21
-6.886072334e-22
-1.283683495e-21
-5.930383139e-22
-1.154371781e-21
-5.112285252e-22
-1.035577385e-21
-4.411420854e-22
-9.272053326e-22
-3.810254696e-22
-8.289148295e-22
-3.293783407e-22
-7.402069949e-22
-2.849228542e-22
-6.604898339e-22
-2.465737909e-22
-5.891254552e-22
-2.134108737e-22
-5.254636861e-22
-1.846539077e-22
-4.688654171e-22
-1.596409332e-22
-4.187183043e-22
-1.378093177e-22
-3.744468608e-22
-1.186795609e-22
-3.355184936e-22
-1.018415251e-22
-3.014466644e-22
-8.694277601e-23
-2.717920551e-22
-7.367873057e-23
-2.461623985e-22
-6.17843285e-23
-2.242114577e-22
-5.102697204e-23
-2.056375101e-22
-4.120051028e-23
-1.901815978e-22
-3.212007225e-23
-1.776257274e-22
-2.36175798e-23
-1.67791157e-22
-1.553779375e-23
-1.60536862e-22
-7.734765815e-24
-1.557582473e-22
-1.533861495e-22
1.925303528e-08
-1.534408201e-08
-1.39423973e-08
-5.109034164e-08
-4.83382453e-08
-9.380387619e-08
-6.519567976e-08
-1.445017075e-07
-5.120527683e-08
-1.702273087e-07
-1.833552143e-08
-1.277053634e-07
3.575417277e-11
-3.849914668e-08
-1.436567879e-18
-6.62499344e-10
-6.536012336e-21
-1.545365569e-23
-6.348941457e-21
-8.190901813e-22
-6.012731634e-21
-1.547198916e-21
-5.564728958e-21
-2.155182723e-21
-5.047309257e-21
-2.617948787e-21
-4.500222294e-21
-2.931289503e-21
-3.955825158e-21
-3.10687452e-21
-3.437442916e-21
-3.165508402e-21
-2.959823894e-21
-3.131442755e-21
-2.53064392e-21
-3.028489009e-21
-2.152316254e-21
-2.877813082e-21
-1.823682014e-21
-2.696988315e-21
-1.541393351e-21
-2.49985812e-21
-1.300947589e-21
-2.296847896e-21
-1.097405224e-21
-2.095477317e-21
-9.258535029e-22
-1.900920326e-21
-7.816807981e-22
-1.716530155e-21
-6.607187104e-22
-1.544292164e-21
-5.592968577e-22
-1.385194147e-21
-4.742434467e-22
-1.23951795e-21
-4.028547732e-22
-1.10706263e-21
-3.428490922e-22
-9.873112478e-22
-2.923146794e-22
-8.795529844e-22
-2.496579944e-22
-7.829707712e-22
-2.135552286e-22
-6.967028772e-22
-1.829088298e-22
-6.198851516e-22
-1.568095464e-22
-5.516791178e-22
-1.345039205e-22
-4.912898698e-22
-1.153668295e-22
-4.37976726e-22
-9.88785203e-23
-3.910588272e-22
-8.460553726e-23
-3.499172814e-22
-7.218495645e-23
-3.139950162e-22
-6.131138999e-23
-2.827951762e-22
-5.172628253e-23
-2.558786602e-22
-4.320908741e-23
-2.32861221e-22
-3.556997076e-23
-2.134104226e-22
-2.864374706e-23
-1.972426575e-22
-2.228479743e-23
-1.841203651e-22
-1.636276232e-23
-1.738495434e-22
-1.075883348e-23
-1.662776161e-22
-5.36249618e-24
-1.612916941e-22
-1.588172566e-22
3.382829325e-08
-6.152896742e-09
9.703574421e-09
-2.69656229e-08
-2.656479539e-08
-5.75355064e-08
-5.780957494e-08
-1.132569279e-07
-5.893278153e-08
-1.691041022e-07
-3.049540925e-08
-1.561427358e-07
-1.474095444e-09
-6.752046048e-08
-7.182839393e-18
-2.136594808e-09
-7.342778625e-21
-9.965658595e-23
-7.076802952e-21
-1.0850708e-21
-6.620590144e-21
-2.003422232e-21
-6.027473876e-21
-2.748315124e-21
-5.360708079e-21
-3.284736116e-21
-4.675911073e-21
-3.616113362e-21
-4.014580068e-21
-3.76823765e-21
-3.403496145e-21
-3.776629666e-21
-2.856975845e-21
-3.67800555e-21
-2.380055768e-21
-3.505456662e-21
-1.971560643e-21
-3.286360784e-21
-1.626603908e-21
-3.04200254e-21
-1.338420703e-21
-2.788103632e-21
-1.099602868e-21
-2.535732753e-21
-9.028649943e-22
-2.292286817e-21
-7.414732592e-22
-2.062388175e-21
-6.094477495e-22
-1.848636143e-21
-5.01622107e-22
-1.65220252e-21
-4.136196618e-22
-1.473285406e-21
-3.417855477e-22
-1.311444837e-21
-2.830998434e-22
-1.165844921e-21
-2.350867493e-22
-1.035424592e-21
-1.95728163e-22
-9.190153296e-22
-1.633857848e-22
-8.154202575e-22
-1.367333152e-22
-7.234656415e-22
-1.146988257e-22
-6.420329562e-22
-9.641659888e-23
-5.700775106e-22
-8.118737587e-23
-5.066379375e-22
-6.844583928e-23
-4.508396112e-22
-5.773419183e-23
-4.018941499e-22
-4.868079024e-23
-3.590965056e-22
-4.098292306e-23
-3.218206724e-22
-3.439295457e-23
-2.895147173e-22
-2.87071828e-23
-2.616956039e-22
-2.37568723e-23
-2.379441175e-22
-1.940101897e-23
-2.179000893e-22
-1.552048557e-23
-2.012580443e-22
-1.201321359e-23
-1.877633424e-22
-8.790271074e-24
-1.772088543e-22
-5.772539194e-24
-1.694321901e-22
-2.887873655e-24
-1.643134859e-22
-1.617737489e-22
3.140805568e-08
-2.57281859e-09
1.626862558e-08
-1.182619286e-08
-1.367317836e-08
-2.759370253e-08
-5.214736815e-08
-7.478273817e-08
-6.779420846e-08
-1.534572619e-07
-4.617168335e-08
-1.777652609e-07
-7.669443543e-09
-1.060227003e-07
3.943785402e-18
-9.806038382e-09
-8.33913444e-21
-8.258288054e-23
-7.994637083e-21
-1.429573104e-21
-7.365307529e-21
-2.632762296e-21
-6.56391156e-21
-3.549727227e-21
-5.692213803e-21
-4.156455408e-21
-4.828212549e-21
-4.480141475e-21
-4.023155346e-21
-4.573326983e-21
-3.305037261e-21
-4.494785099e-21
-2.684563696e-21
-4.298521617e-21
-2.16106622e-21
-4.029001722e-21
-1.727280954e-21
-3.720198635e-21
-1.372760315e-21
-3.396580678e-21
-1.086086797e-21
-3.074839467e-21
-8.561800411e-22
-2.765706541e-21
-6.729793524e-22
-2.475559143e-21
-5.277270934e-22
-2.20771656e-21
-4.130151257e-22
-1.963428602e-21
-3.227028016e-22
-1.742599572e-21
-2.517749226e-22
-1.544302113e-21
-1.961803347e-22
-1.367132213e-21
-1.526736802e-22
-1.209448177e-21
-1.186715095e-22
-1.069527028e-21
-9.212722901e-23
-9.45663384e-22
-7.14255823e-23
-8.362290278e-22
-5.529541195e-23
-7.397061223e-22
-4.273857821e-23
-6.547031209e-22
-3.297265705e-23
-5.799596138e-22
-2.538511143e-23
-5.143443441e-22
-1.949685619e-23
-4.568492313e-22
-1.493342053e-23
-4.065812772e-22
-1.140219995e-23
-3.627535653e-22
-8.674555048e-24
-3.246761227e-22
-6.571747107e-24
-2.917471142e-22
-4.953897186e-24
-2.634446421e-22
-3.711318212e-24
-2.393192986e-22
-2.757701926e-24
-2.189875351e-22
-2.024748917e-24
-2.021258667e-22
-1.457914315e-24
-1.88465898e-22
-1.013008113e-24
-1.777901444e-22
-6.534403723e-25
-1.699286154e-22
-3.479407022e-25
-1.647561272e-22
-1.621903151e-22
2.697346628e-08
-4.093154062e-10
1.719525125e-08
-2.047977878e-09
-4.815952242e-09
-5.582499119e-09
-4.513406649e-08
-3.446462395e-08
-7.593280578e-08
-1.226585227e-07
-6.589081444e-08
-1.878072523e-07
-2.103558312e-08
-1.508779316e-07
4.33680869e-17
-3.084162155e-08
-9.729842384e-21
-1.367778713e-22
-9.197364099e-21
-1.962056336e-21
-8.282151829e-21
-3.547985079e-21
-7.170774836e-21
-4.661120358e-21
-6.016161777e-21
-5.311090004e-21
-4.921691319e-21
-5.574638797e-21
-3.944883084e-21
-5.550167355e-21
-3.108995853e-21
-5.330709684e-21
-2.415213522e-21
-4.992346456e-21
-1.852385399e-21
-4.591877435e-21
-1.403746421e-21
-4.168890205e-21
-1.051072753e-21
-3.749311853e-21
-7.769857607e-22
-3.348988786e-21
-5.660492506e-22
-2.976710093e-21
-4.051430321e-22
-2.63653701e-21
-2.834386719e-22
-2.329497057e-21
-1.92181473e-22
-2.054766304e-21
-1.243983361e-22
-1.810467448e-21
-7.459682698e-23
-1.594192461e-21
-3.848769582e-23
-1.403334144e-21
-1.274401452e-23
-1.235288473e-21
5.200266859e-24
-1.087571588e-21
1.731470835e-23
-9.57881613e-22
2.510427386e-23
-8.441257307e-22
2.971388524e-23
-7.444260581e-22
3.201057962e-23
-6.571131604e-22
3.264764831e-23
-5.80712879e-22
3.211446214e-23
-5.139300333e-22
3.077502877e-23
-4.556311774e-22
2.8897738e-23
-4.048276927e-22
2.667824905e-23
-3.606599302e-22
2.425706057e-23
-3.223827543e-22
2.173296992e-23
-2.893526272e-22
1.917336234e-23
-2.610162374e-22
1.662206123e-23
-2.369006141e-22
1.410530723e-23
-2.16604625e-22
1.163630619e-23
-1.997917493e-22
9.218688439e-24
-1.861840155e-22
6.849146256e-24
-1.755570003e-22
4.519459334e-24
-1.677358e-22
2.218075432e-24
-1.625918987e-22
-1.600408714e-22
2.616359782e-08
1.156454626e-09
2.004917852e-08
4.066441397e-09
6.420666358e-09
8.046012966e-09
-2.906644481e-08
1.022487185e-09
-7.527891404e-08
-7.644605342e-08
-8.468157416e-08
-1.784045922e-07
-4.091825566e-08
-1.946412502e-07
7.23908238e-17
-7.175987716e-08
-1.168457591e-20
-4.662862409e-22
-1.078300984e-20
-2.863627362e-21
-9.395334607e-21
-4.935670822e-21
-7.821126589e-21
-6.235344519e-21
-6.280201327e-21
-6.852036805e-21
-4.897684252e-21
-6.957182738e-21
-3.725805364e-21
-6.722078384e-21
-2.770916392e-21
-6.285636015e-21
-2.014942338e-21
-5.748363024e-21
-1.429527773e-21
-5.177339596e-21
-9.84247306e-22
-4.614223272e-21
-6.507936518e-22
-4.082823022e-21
-4.047274013e-22
-3.59511737e-21
-2.258813326e-22
-3.155623213e-21
-9.80989862e-23
-2.764391013e-21
-8.698556291e-24
-2.418973634e-21
5.212940223e-23
-2.115674775e-21
9.188966724e-23
-1.850312462e-21
1.162744942e-22
-1.618666139e-21
1.295703801e-22
-1.416722841e-21
1.349843675e-22
-1.240799087e-21
1.349006956e-22
-1.087588207e-21
1.310799709e-22
-9.541646878e-22
1.248122857e-22
-8.379651951e-22
1.170341468e-22
-7.36758256e-22
1.08417331e-22
-6.486097023e-22
9.943615602e-23
-5.718479131e-22
9.041825665e-23
-5.050310221e-22
8.158280778e-23
-4.469171208e-22
7.306922288e-23
-3.96437827e-22
6.495863964e-23
-3.526752136e-22
5.728995182e-23
-3.148418995e-22
5.007172239e-23
-2.822640142e-22
4.329098948e-23
-2.543667202e-22
3.691973149e-23
-2.306619855e-22
3.091957151e-23
-2.107383215e-22
2.524516109e-23
-1.942522351e-22
1.98465774e-23
-1.809211795e-22
1.46709885e-23
-1.705178217e-22
9.663782394e-24
-1.628654777e-22
4.76931179e-24
-1.578345957e-22
-1.553401964e-22
2.918679546e-08
2.156096621e-09
2.599434747e-08
7.258889375e-09
2.01806117e-08
1.385974868e-08
-7.33025052e-10
2.193612389e-08
-5.533867962e-08
-2.184039884e-08
-9.213118451e-08
-1.416120873e-07
-6.271074413e-08
-2.240616906e-07
7.005978913e-17
-1.344706212e-07
-1.438284156e-20
-9.477453632e-22
-1.285484381e-20
-4.391630058e-21
-1.069545195e-20
-7.095073193e-21
-8.438672924e-21
-8.492139695e-21
-6.386201967e-21
-8.904529305e-21
-4.663273577e-21
-8.680137997e-21
-3.289865157e-21
-8.095518948e-21
-2.233978682e-21
-7.341559853e-21
-1.444127198e-21
-6.538257027e-21
-8.665305415e-22
-5.754983855e-21
-4.529070106e-22
-5.027899408e-21
-1.631106457e-22
-4.372676908e-21
3.476644924e-23
-3.793056806e-21
1.65363055e-22
-3.286286876e-21
2.47336835e-22
-2.846436458e-21
2.946211785e-22
-2.466334132e-21
3.175127902e-22
-2.138646908e-21
3.235560313e-22
-1.856440461e-21
3.182361896e-22
-1.613435157e-21
3.055106513e-22
-1.404090124e-21
2.88209861e-22
-1.223594932e-21
2.683370192e-22
-1.067815665e-21
2.472906107e-22
-9.332220889e-22
2.260288869e-22
-8.168106311e-22
2.051910511e-22
-7.160307674e-22
1.851863231e-22
-6.287183425e-22
1.662592511e-22
-5.530370609e-22
1.485374952e-22
-4.87428165e-22
1.320666872e-22
-4.305677159e-22
1.168357697e-22
-3.813306395e-22
1.027953201e-22
-3.387606415e-22
8.987070881e-23
-3.020451321e-22
7.797145439e-23
-2.704943871e-22
6.699777977e-23
-2.43524272e-22
5.684511145e-23
-2.206419573e-22
4.740706942e-23
-2.014341467e-22
3.857735236e-23
-1.855574248e-22
3.02508178e-23
-1.727304031e-22
2.23239797e-23
-1.627274043e-22
1.46950889e-23
-1.553734809e-22
7.263921267e-24
-1.505406058e-22
-1.481449161e-22
3.455405217e-08
2.585633562e-09
3.349108239e-08
8.321859149e-09
3.246025401e-08
1.489057704e-08
2.890473246e-08
2.549164538e-08
-1.243173517e-08
1.94960688e-08
-7.705829905e-08
-7.698552344e-08
-7.852323015e-08
-2.225967597e-07
2.821636154e-17
-2.129938511e-07
-1.841133504e-20
-2.033611975e-21
-1.555904051e-20
-7.243929542e-21
-1.209411935e-20
-1.056000487e-20
-8.852797493e-21
-1.17334777e-20
-6.163191578e-21
-1.159415677e-20
-4.079608388e-21
-1.076374806e-20
-2.536505991e-21
-9.638653492e-21
-1.431022856e-21
-8.447080354e-21
-6.610349938e-22
-7.308287411e-21
-1.395246219e-22
-6.276541832e-21
2.022966537e-22
-5.369773293e-21
4.165231101e-22
-4.58696089e-21
5.415659481e-22
-3.91816199e-21
6.052492639e-22
-3.350037255e-21
6.274757734e-22
-2.868734638e-21
6.223430317e-22
-2.461277551e-21
5.997506014e-22
-2.116135005e-21
5.665890118e-22
-1.823363637e-21
5.276052527e-22
-1.574540265e-21
4.860264937e-22
-1.362604193e-21
4.440067637e-22
-1.181671846e-21
4.029456001e-22
-1.02685481e-21
3.637148103e-22
-8.940951168e-22
3.268195622e-22
-7.800225513e-22
2.925126497e-22
-6.818342105e-22
2.608753919e-22
-5.971944614e-22
2.318747611e-22
-5.241526585e-22
2.054035648e-22
-4.610758764e-22
1.813085409e-22
-4.065941039e-22
1.594098272e-22
-3.595556646e-22
1.395142752e-22
-3.189909759e-22
1.21424372e-22
-2.840830816e-22
1.049440315e-22
-2.541436827e-22
8.988215917e-23
-2.285936349e-22
7.605463769e-23
-2.069470846e-22
6.328519703e-23
-1.887985818e-22
5.140550147e-23
-1.738126445e-22
4.025469049e-23
-1.617153586e-22
2.967854269e-23
-1.522876856e-22
1.952838292e-23
-1.453602234e-22
9.659818295e-24
-1.408092271e-22
-1.385537417e-22
4.050889163e-08
2.63655731e-09
4.075124321e-08
8.079507566e-09
4.146955278e-08
1.417226746e-08
4.574724024e-08
2.12139579e-08
3.268232786e-08
3.256098116e-08
-3.581804503e-08
-8.485150505e-09
-8.020660062e-08
-1.782082042e-07
-2.946319404e-17
-2.932004516e-07
-2.46004453e-20
-5.523666414e-21
-1.887922193e-20
-1.296515786e-20
-1.32717293e-20
-1.616750802e-20
-8.716581235e-21
-1.628864191e-20
-5.334764362e-21
-1.497599519e-20
-2.955655321e-21
-1.314288398e-20
-1.345529764e-21
-1.12488112e-20
-2.925017772e-22
-9.50014571e-21
3.706205379e-22
-7.971452251e-21
7.672487336e-22
-6.673217637e-21
9.851585641e-22
-5.587735737e-21
1.085388558e-21
-4.687248412e-21
1.109759834e-21
-3.942595616e-21
1.086616683e-21
-3.326961172e-21
1.034990453e-21
-2.817180084e-21
9.675352459e-22
-2.39389851e-21
8.925640482e-22
-2.041244341e-21
8.154476565e-22
-1.746332016e-21
7.395707183e-22
-1.4987522e-21
6.669832633e-22
-1.290109572e-21
5.988440731e-22
-1.113629305e-21
5.357221306e-22
-9.638331816e-22
4.778013791e-22
-8.362781893e-22
4.250195717e-22