/*--------------------------------*- C++ -*----------------------------------*\
  =========                 |
  \\      /  F ield         | OpenFOAM: The Open Source CFD Toolbox
   \\    /   O peration     | Website:  https://openfoam.org
    \\  /    A nd           | Version:  6
     \\/     M anipulation  |
\*---------------------------------------------------------------------------*/
FoamFile
{
    version     2.0;
    format      ascii;
    class       volScalarField;
    location    "0.05";
    object      pVap;
}
// * * * * * * * * * * * * * * * * * * * * * * * * * * * * * * * * * * * * * //

dimensions      [1 -1 -2 0 0 0 0];

internalField   nonuniform List<scalar> 
2500
(
55292.68433
55292.68127
55292.67346
55292.66147
55292.64645
55292.62932
55292.61085
55292.59276
1.074299202
1.074264134
1.074255364
1.074253195
1.074252664
1.074252533
1.0742525
1.074252492
1.07425249
1.074252489
1.074252489
1.074252489
1.074252489
1.074252489
1.074252489
1.074252489
1.074252489
1.074252489
1.074252489
1.074252489
1.074252489
1.074252489
1.074252489
1.074252489
1.074252489
1.074252489
1.074252489
1.074252489
1.074252489
1.074252489
1.074252489
1.074252489
1.074252489
1.074252489
1.074252489
1.074252489
1.074252489
1.074252489
1.074252489
1.074252489
1.074252489
1.074252489
55292.8875
55292.87669
55292.85113
55292.81273
55292.7651
55292.71109
55292.65297
55292.60126
1.074403436
1.074290691
1.074262093
1.074254912
1.074253113
1.074252656
1.074252535
1.074252502
1.074252493
1.07425249
1.074252489
1.074252489
1.074252489
1.074252489
1.074252489
1.074252489
1.074252489
1.074252489
1.074252489
1.074252489
1.074252489
1.074252489
1.074252489
1.074252489
1.074252489
1.074252489
1.074252489
1.074252489
1.074252489
1.074252489
1.074252489
1.074252489
1.074252489
1.074252489
1.074252489
1.074252489
1.074252489
1.074252489
1.074252489
1.074252489
1.074252489
1.074252489
55293.1498
55293.12718
55293.07705
55293.00366
55292.91379
55292.81297
55292.70522
55292.59897
1.074542533
1.074328003
1.074272199
1.074257747
1.074253955
1.074252921
1.074252622
1.07425253
1.074252502
1.074252493
1.07425249
1.074252489
1.074252489
1.074252489
1.074252489
1.074252489
1.074252489
1.074252489
1.074252489
1.074252489
1.074252489
1.074252489
1.074252489
1.074252489
1.074252489
1.074252489
1.074252489
1.074252489
1.074252489
1.074252489
1.074252489
1.074252489
1.074252489
1.074252489
1.074252489
1.074252489
1.074252489
1.074252489
1.074252489
1.074252489
1.074252489
1.074252489
55293.49826
55293.45825
55293.37452
55293.2547
55293.10832
55292.94581
55292.77324
55292.59973
1.074744234
1.074386497
1.074289742
1.07426337
1.074255889
1.074253614
1.07425287
1.074252616
1.07425253
1.074252501
1.074252492
1.07425249
1.074252489
1.074252489
1.074252489
1.074252489
1.074252489
1.074252489
1.074252489
1.074252489
1.074252489
1.074252489
1.074252489
1.074252489
1.074252489
1.074252489
1.074252489
1.074252489
1.074252489
1.074252489
1.074252489
1.074252489
1.074252489
1.074252489
1.074252489
1.074252489
1.074252489
1.074252489
1.074252489
1.074252489
1.074252489
1.074252489
55293.92094
55293.86487
55293.74668
55293.57454
55293.3572
55293.11596
55292.86072
55292.60627
1.075045382
1.074484068
1.074323375
1.074275934
1.074260829
1.074255559
1.074253607
1.074252879
1.074252617
1.074252528
1.0742525
1.074252492
1.07425249
1.074252489
1.074252489
1.074252489
1.074252489
1.074252489
1.074252489
1.074252489
1.074252489
1.074252489
1.074252489
1.074252489
1.074252489
1.074252489
1.074252489
1.074252489
1.074252489
1.074252489
1.074252489
1.074252489
1.074252489
1.074252489
1.074252489
1.074252489
1.074252489
1.074252489
1.074252489
1.074252489
1.074252489
1.074252489
55294.35333
55294.29486
55294.16157
55293.95125
55293.66041
55293.32568
55292.97004
55292.61846
1.075507038
1.074657994
1.074394204
1.074306557
1.07427415
1.074261124
1.074255782
1.074253666
1.07425288
1.07425261
1.074252524
1.074252498
1.074252491
1.074252489
1.074252489
1.074252489
1.074252489
1.074252489
1.074252489
1.074252489
1.074252489
1.074252489
1.074252489
1.074252489
1.074252489
1.074252489
1.074252489
1.074252489
1.074252489
1.074252489
1.074252489
1.074252489
1.074252489
1.074252489
1.074252489
1.074252489
1.074252489
1.074252489
1.074252489
1.074252489
1.074252489
1.074252489
55294.7303
55294.68259
55294.55924
55294.3424
55294.00494
55293.57205
55293.10223
55292.62555
1.076255356
1.07499701
1.074556928
1.074385334
1.074310687
1.074276889
1.074262038
1.074255945
1.074253644
1.074252846
1.074252591
1.074252516
1.074252496
1.07425249
1.074252489
1.074252489
1.074252489
1.074252489
1.074252489
1.074252489
1.074252489
1.074252489
1.074252489
1.074252489
1.074252489
1.074252489
1.074252489
1.074252489
1.074252489
1.074252489
1.074252489
1.074252489
1.074252489
1.074252489
1.074252489
1.074252489
1.074252489
1.074252489
1.074252489
1.074252489
1.074252489
1.074252489
55295.0319
55295.00238
55294.90458
55294.70653
55294.36288
55293.85139
55293.25433
55292.63153
1.077587363
1.075725089
1.074954461
1.074592027
1.074409912
1.074320347
1.074279378
1.074262267
1.07425576
1.0742535
1.074252779
1.074252566
1.074252508
1.074252493
1.07425249
1.074252489
1.074252489
1.074252489
1.074252489
1.074252489
1.074252489
1.074252489
1.074252489
1.074252489
1.074252489
1.074252489
1.074252489
1.074252489
1.074252489
1.074252489
1.074252489
1.074252489
1.074252489
1.074252489
1.074252489
1.074252489
1.074252489
1.074252489
1.074252489
1.074252489
1.074252489
1.074252489
55295.26629
55295.26001
55295.19788
55295.03481
55294.71088
55294.16361
55293.4288
55292.64188
1.080256
1.077411982
1.075951889
1.075130063
1.074672018
1.074435643
1.074325369
1.074278998
1.074261345
1.074255219
1.07425327
1.074252697
1.074252541
1.074252501
1.074252491
1.074252489
1.074252489
1.074252489
1.074252489
1.074252489
1.074252489
1.074252489
1.074252489
1.074252489
1.074252489
1.074252489
1.074252489
1.074252489
1.074252489
1.074252489
1.074252489
1.074252489
1.074252489
1.074252489
1.074252489
1.074252489
1.074252489
1.074252489
1.074252489
1.074252489
1.074252489
1.074252489
55295.4489
55295.46761
55295.44874
55295.33547
55295.05207
55294.50008
55293.64527
55292.65427
1.086161397
1.081472784
1.07844571
1.07649358
1.075337945
1.074727989
1.074441555
1.074321092
1.074275336
1.074259511
1.074254491
1.074253021
1.074252621
1.07425252
1.074252496
1.07425249
1.074252489
1.074252489
1.074252489
1.074252489
1.074252489
1.074252489
1.074252489
1.074252489
1.074252489
1.074252489
1.074252489
1.074252489
1.074252489
1.074252489
1.074252489
1.074252489
1.074252489
1.074252489
1.074252489
1.074252489
1.074252489
1.074252489
1.074252489
1.074252489
1.074252489
1.074252489
55295.60058
55295.6367
55295.6645
55295.61575
55295.39708
55294.8706
55293.92196
55292.67669
1.099927397
1.091285876
1.084533343
1.079818697
1.076953854
1.075433176
1.074720188
1.074421501
1.074308552
1.074269657
1.074257368
1.074253781
1.074252809
1.074252564
1.074252505
1.074252492
1.074252489
1.074252489
1.074252489
1.074252489
1.074252489
1.074252489
1.074252489
1.074252489
1.074252489
1.074252489
1.074252489
1.074252489
1.074252489
1.074252489
1.074252489
1.074252489
1.074252489
1.074252489
1.074252489
1.074252489
1.074252489
1.074252489
1.074252489
1.074252489
1.074252489
1.074252489
55295.7418
55295.78522
55295.8536
55295.88054
55295.75108
55295.28677
55294.28398
55292.8558
1.132530086
1.114605246
1.09888159
1.087570434
1.080682264
1.077045971
1.075352759
1.074648052
1.074383105
1.074292327
1.07426377
1.074255468
1.074253226
1.07425266
1.074252526
1.074252497
1.07425249
1.074252489
1.074252489
1.074252489
1.074252489
1.074252489
1.074252489
1.074252489
1.074252489
1.074252489
1.074252489
1.074252489
1.074252489
1.074252489
1.074252489
1.074252489
1.074252489
1.074252489
1.074252489
1.074252489
1.074252489
1.074252489
1.074252489
1.074252489
1.074252489
1.074252489
55295.88069
55295.93087
55296.03006
55296.13769
55296.12049
55295.76242
55294.76086
55294.46836
1.210002606
1.168789768
1.131429672
1.104800397
1.088841024
1.080534373
1.076709009
1.075130454
1.074540969
1.074340106
1.074277209
1.074258996
1.074254094
1.074252861
1.07425257
1.074252506
1.074252492
1.074252489
1.074252489
1.074252489
1.074252489
1.074252489
1.074252489
1.074252489
1.074252489
1.074252489
1.074252489
1.074252489
1.074252489
1.074252489
1.074252489
1.074252489
1.074252489
1.074252489
1.074252489
1.074252489
1.074252489
1.074252489
1.074252489
1.074252489
1.074252489
1.074252489
55296.0215
55296.07991
55296.20698
55296.39468
55296.51186
55296.31055
55295.38986
55294.78783
1.396399358
1.292868482
1.202788554
1.141351336
1.105757571
1.087656979
1.079449146
1.076097673
1.07485563
1.074434888
1.074303762
1.074265944
1.074255798
1.074253254
1.074252656
1.074252523
1.074252496
1.07425249
1.074252489
1.074252489
1.074252489
1.074252489
1.074252489
1.074252489
1.074252489
1.074252489
1.074252489
1.074252489
1.074252489
1.074252489
1.074252489
1.074252489
1.074252489
1.074252489
1.074252489
1.074252489
1.074252489
1.074252489
1.074252489
1.074252489
1.074252489
1.074252489
55296.16791
55296.23668
55296.39214
55296.64866
55296.92308
55296.93857
55296.2118
55293.83021
1.86641878
1.579487343
1.355927637
1.215739964
1.139021731
1.101368942
1.08465537
1.077919519
1.075444643
1.074611454
1.074353032
1.074278793
1.074258941
1.074253978
1.074252813
1.074252556
1.074252502
1.074252491
1.074252489
1.074252489
1.074252489
1.074252489
1.074252489
1.074252489
1.074252489
1.074252489
1.074252489
1.074252489
1.074252489
1.074252489
1.074252489
1.074252489
1.074252489
1.074252489
1.074252489
1.074252489
1.074252489
1.074252489
1.074252489
1.074252489
1.074252489
1.074252489
55296.32098
55296.39953
55296.5813
55296.89382
55297.33238
55297.63223
55297.24729
55294.79098
3.186390264
2.274652217
1.684918656
1.362468732
1.201242126
1.126246514
1.09393985
1.081135519
1.076477462
1.074919548
1.07443867
1.074301053
1.074264371
1.074255225
1.074253084
1.074252611
1.074252513
1.074252493
1.07425249
1.074252489
1.074252489
1.074252489
1.074252489
1.074252489
1.074252489
1.074252489
1.074252489
1.074252489
1.074252489
1.074252489
1.074252489
1.074252489
1.074252489
1.074252489
1.074252489
1.074252489
1.074252489
1.074252489
1.074252489
1.074252489
1.074252489
1.074252489
55296.48157
55296.56871
55296.77401
55297.134
55297.69057
55298.34087
55298.46826
55296.44229
7.601202015
4.133041474
2.413798009
1.647073746
1.312507814
1.16879045
1.109451121
1.086441692
1.078169026
1.075421642
1.074577708
1.074337083
1.074273137
1.074257234
1.074253519
1.074252701
1.07425253
1.074252496
1.07425249
1.074252489
1.074252489
1.074252489
1.074252489
1.074252489
1.074252489
1.074252489
1.074252489
1.074252489
1.074252489
1.074252489
1.074252489
1.074252489
1.074252489
1.074252489
1.074252489
1.074252489
1.074252489
1.074252489
1.074252489
1.074252489
1.074252489
1.074252489
55296.65201
55296.74894
55296.98102
55297.39396
55298.04549
55298.97787
55299.78601
55298.72003
25.43134347
9.769683805
4.123032019
2.198218108
1.503814696
1.23738607
1.133674667
1.094599202
1.080748018
1.076183241
1.074787838
1.074391378
1.074286315
1.074260248
1.07425417
1.074252834
1.074252556
1.074252501
1.074252491
1.074252489
1.074252489
1.074252489
1.074252489
1.074252489
1.074252489
1.074252489
1.074252489
1.074252489
1.074252489
1.074252489
1.074252489
1.074252489
1.074252489
1.074252489
1.074252489
1.074252489
1.074252489
1.074252489
1.074252489
1.074252489
1.074252489
1.074252489
55296.83278
55296.94249
55297.20928
55297.6922
55298.45909
55299.60271
55301.06897
55301.31292
103.8941612
28.56945757
8.374374034
3.271770535
1.821071491
1.341558504
1.168925152
1.106238252
1.084392782
1.077253892
1.075082203
1.074467235
1.074304686
1.074264441
1.074255075
1.074253019
1.074252592
1.074252508
1.074252492
1.074252489
1.074252489
1.074252489
1.074252489
1.074252489
1.074252489
1.074252489
1.074252489
1.074252489
1.074252489
1.074252489
1.074252489
1.074252489
1.074252489
1.074252489
1.074252489
1.074252489
1.074252489
1.074252489
1.074252489
1.074252489
1.074252489
1.074252489
55297.02067
55297.14672
55297.45809
55298.03229
55298.95691
55300.32528
55302.21048
55303.79165
413.9371667
90.64841194
19.15142636
5.352446835
2.326378568
1.48990534
1.216475866
1.121564123
1.089140271
1.078640845
1.075462256
1.074564935
1.0743283
1.074269822
1.074256234
1.074253256
1.074252638
1.074252516
1.074252494
1.07425249
1.074252489
1.074252489
1.074252489
1.074252489
1.074252489
1.074252489
1.074252489
1.074252489
1.074252489
1.074252489
1.074252489
1.074252489
1.074252489
1.074252489
1.074252489
1.074252489
1.074252489
1.074252489
1.074252489
1.074252489
1.074252489
1.074252489
55297.208
55297.35303
55297.71626
55298.39607
55299.5059
55301.13774
55303.35477
55305.85063
1338.92005
267.6199103
44.86748663
9.223315879
3.086504403
1.685871333
1.275394008
1.140028974
1.094792047
1.080282785
1.075910768
1.074679984
1.07435606
1.074276138
1.074257593
1.074253533
1.074252692
1.074252526
1.074252495
1.07425249
1.074252489
1.074252489
1.074252489
1.074252489
1.074252489
1.074252489
1.074252489
1.074252489
1.074252489
1.074252489
1.074252489
1.074252489
1.074252489
1.074252489
1.074252489
1.074252489
1.074252489
1.074252489
1.074252489
1.074252489
1.074252489
1.074252489
55297.38328
55297.54824
55297.96589
55298.75604
55300.05613
55301.96422
55304.43839
55307.38566
3260.363878
657.9156401
97.41890551
15.74115756
4.131636342
1.921097039
1.341390257
1.160097565
1.100858584
1.082035604
1.076388196
1.074802221
1.074385511
1.074282832
1.074259032
1.074253826
1.074252748
1.074252537
1.074252497
1.07425249
1.074252489
1.074252489
1.074252489
1.074252489
1.074252489
1.074252489
1.074252489
1.074252489
1.074252489
1.074252489
1.074252489
1.074252489
1.074252489
1.074252489
1.074252489
1.074252489
1.074252489
1.074252489
1.074252489
1.074252489
1.074252489
1.074252489
55297.5328
55297.71643
55298.18492
55299.0775
55300.54776
55302.68975
55305.35967
55308.44637
6029.093369
1284.296942
181.7643469
24.96030254
5.37901882
2.168564964
1.406327261
1.17927285
1.106586497
1.08368233
1.07683562
1.0749166
1.074413038
1.074289082
1.074260374
1.074254099
1.074252801
1.074252547
1.074252499
1.074252491
1.074252489
1.074252489
1.074252489
1.074252489
1.074252489
1.074252489
1.074252489
1.074252489
1.074252489
1.074252489
1.074252489
1.074252489
1.074252489
1.074252489
1.074252489
1.074252489
1.074252489
1.074252489
1.074252489
1.074252489
1.074252489
1.074252489
55297.64268
55297.84127
55298.35051
55299.32554
55300.93173
55303.25042
55306.07182
55309.10506
8805.251779
1982.812431
279.2662098
34.90775814
6.56845184
2.381759613
1.459219581
1.194508127
1.11109231
1.08497245
1.077185477
1.075005934
1.074434519
1.074293956
1.07426142
1.074254312
1.074252843
1.074252554
1.0742525
1.074252491
1.074252489
1.074252489
1.074252489
1.074252489
1.074252489
1.074252489
1.074252489
1.074252489
1.074252489
1.074252489
1.074252489
1.074252489
1.074252489
1.074252489
1.074252489
1.074252489
1.074252489
1.074252489
1.074252489
1.074252489
1.074252489
1.074252489
55297.70116
55297.90834
55298.44107
55299.46424
55301.15125
55303.57045
55306.50516
55309.42277
10536.13621
2451.358248
347.0693255
41.617188
7.313882481
2.506913199
1.489131281
1.202981243
1.113581551
1.085683272
1.077378002
1.075055059
1.074446326
1.074296634
1.074261994
1.074254429
1.074252865
1.074252558
1.074252501
1.074252491
1.074252489
1.074252489
1.074252489
1.074252489
1.074252489
1.074252489
1.074252489
1.074252489
1.074252489
1.074252489
1.074252489
1.074252489
1.074252489
1.074252489
1.074252489
1.074252489
1.074252489
1.074252489
1.074252489
1.074252489
1.074252489
1.074252489
55297.70116
55297.90834
55298.44107
55299.46424
55301.15125
55303.57045
55306.50516
55309.42277
10536.13626
2451.358202
347.0693192
41.61718743
7.313882424
2.50691319
1.489131279
1.202981243
1.113581551
1.085683272
1.077378002
1.075055059
1.074446326
1.074296634
1.074261994
1.074254429
1.074252865
1.074252558
1.074252501
1.074252491
1.074252489
1.074252489
1.074252489
1.074252489
1.074252489
1.074252489
1.074252489
1.074252489
1.074252489
1.074252489
1.074252489
1.074252489
1.074252489
1.074252489
1.074252489
1.074252489
1.074252489
1.074252489
1.074252489
1.074252489
1.074252489
1.074252489
55297.64268
55297.84127
55298.35051
55299.32554
55300.93173
55303.25042
55306.07182
55309.10524
8805.252113
1982.812325
279.2661964
34.90775694
6.568451716
2.381759594
1.459219577
1.194508126
1.11109231
1.08497245
1.077185477
1.075005934
1.074434519
1.074293956
1.07426142
1.074254312
1.074252843
1.074252554
1.0742525
1.074252491
1.074252489
1.074252489
1.074252489
1.074252489
1.074252489
1.074252489
1.074252489
1.074252489
1.074252489
1.074252489
1.074252489
1.074252489
1.074252489
1.074252489
1.074252489
1.074252489
1.074252489
1.074252489
1.074252489
1.074252489
1.074252489
1.074252489
55297.5328
55297.71643
55298.18492
55299.0775
55300.54776
55302.68975
55305.35967
55308.44719
6029.093856
1284.296855
181.7643371
24.96030165
5.379018722
2.168564947
1.406327257
1.179272849
1.106586497
1.08368233
1.07683562
1.0749166
1.074413038
1.074289082
1.074260374
1.074254099
1.074252801
1.074252547
1.074252499
1.074252491
1.074252489
1.074252489
1.074252489
1.074252489
1.074252489
1.074252489
1.074252489
1.074252489
1.074252489
1.074252489
1.074252489
1.074252489
1.074252489
1.074252489
1.074252489
1.074252489
1.074252489
1.074252489
1.074252489
1.074252489
1.074252489
1.074252489
55297.38328
55297.54824
55297.96589
55298.75604
55300.05613
55301.96422
55304.43839
55307.38766
3260.364149
657.9156194
97.4189036
15.7411574
4.131636323
1.921097035
1.341390256
1.160097565
1.100858584
1.082035604
1.076388196
1.074802221
1.074385511
1.074282832
1.074259032
1.074253826
1.074252748
1.074252537
1.074252497
1.07425249
1.074252489
1.074252489
1.074252489
1.074252489
1.074252489
1.074252489
1.074252489
1.074252489
1.074252489
1.074252489
1.074252489
1.074252489
1.074252489
1.074252489
1.074252489
1.074252489
1.074252489
1.074252489
1.074252489
1.074252489
1.074252489
1.074252489
55297.208
55297.35303
55297.71626
55298.39607
55299.5059
55301.13774
55303.35477
55305.85415
1338.920052
267.619929
44.86748896
9.223316165
3.086504448
1.685871342
1.27539401
1.140028974
1.094792047
1.080282785
1.075910768
1.074679984
1.07435606
1.074276138
1.074257593
1.074253533
1.074252692
1.074252526
1.074252495
1.07425249
1.074252489
1.074252489
1.074252489
1.074252489
1.074252489
1.074252489
1.074252489
1.074252489
1.074252489
1.074252489
1.074252489
1.074252489
1.074252489
1.074252489
1.074252489
1.074252489
1.074252489
1.074252489
1.074252489
1.074252489
1.074252489
1.074252489
55297.02067
55297.14672
55297.45808
55298.03229
55298.95691
55300.32528
55302.21048
55303.796
413.9371072
90.64842966
19.15142868
5.352447179
2.326378635
1.489905356
1.216475871
1.121564124
1.089140271
1.078640845
1.075462256
1.074564935
1.0743283
1.074269822
1.074256234
1.074253256
1.074252638
1.074252516
1.074252494
1.07425249
1.074252489
1.074252489
1.074252489
1.074252489
1.074252489
1.074252489
1.074252489
1.074252489
1.074252489
1.074252489
1.074252489
1.074252489
1.074252489
1.074252489
1.074252489
1.074252489
1.074252489
1.074252489
1.074252489
1.074252489
1.074252489
1.074252489
55296.83278
55296.94249
55297.20927
55297.6922
55298.45909
55299.60271
55301.06896
55301.31532
103.8941654
28.56946423
8.374375178
3.271770762
1.821071546
1.34155852
1.168925156
1.106238254
1.084392782
1.077253892
1.075082203
1.074467235
1.074304686
1.074264441
1.074255075
1.074253019
1.074252592
1.074252508
1.074252492
1.074252489
1.074252489
1.074252489
1.074252489
1.074252489
1.074252489
1.074252489
1.074252489
1.074252489
1.074252489
1.074252489
1.074252489
1.074252489
1.074252489
1.074252489
1.074252489
1.074252489
1.074252489
1.074252489
1.074252489
1.074252489
1.074252489
1.074252489
55296.65201
55296.74894
55296.98101
55297.39395
55298.04549
55298.97787
55299.78601
55298.72079
25.43134905
9.769685516
4.123032443
2.198218222
1.50381473
1.237386081
1.13367467
1.094599203
1.080748018
1.076183241
1.074787838
1.074391378
1.074286315
1.074260248
1.07425417
1.074252834
1.074252556
1.074252501
1.074252491
1.074252489
1.074252489
1.074252489
1.074252489
1.074252489
1.074252489
1.074252489
1.074252489
1.074252489
1.074252489
1.074252489
1.074252489
1.074252489
1.074252489
1.074252489
1.074252489
1.074252489
1.074252489
1.074252489
1.074252489
1.074252489
1.074252489
1.074252489
55296.48157
55296.56871
55296.77401
55297.134
55297.69056
55298.34087
55298.46826
55296.44329
7.601203083
4.133041879
2.413798151
1.647073795
1.312507831
1.168790456
1.109451123
1.086441693
1.078169026
1.075421642
1.074577708
1.074337083
1.074273137
1.074257234
1.074253519
1.074252701
1.07425253
1.074252496
1.07425249
1.074252489
1.074252489
1.074252489
1.074252489
1.074252489
1.074252489
1.074252489
1.074252489
1.074252489
1.074252489
1.074252489
1.074252489
1.074252489
1.074252489
1.074252489
1.074252489
1.074252489
1.074252489
1.074252489
1.074252489
1.074252489
1.074252489
1.074252489
55296.32098
55296.39952
55296.58129
55296.89382
55297.33237
55297.63223
55297.24729
55294.79472
3.186390448
2.274652311
1.6849187
1.362468751
1.201242134
1.126246517
1.093939851
1.081135519
1.076477462
1.074919548
1.07443867
1.074301053
1.074264371
1.074255225
1.074253084
1.074252611
1.074252513
1.074252493
1.07425249
1.074252489
1.074252489
1.074252489
1.074252489
1.074252489
1.074252489
1.074252489
1.074252489
1.074252489
1.074252489
1.074252489
1.074252489
1.074252489
1.074252489
1.074252489
1.074252489
1.074252489
1.074252489
1.074252489
1.074252489
1.074252489
1.074252489
1.074252489
55296.16791
55296.23667
55296.39214
55296.64865
55296.92308
55296.93857
55296.2118
55293.83423
1.866418804
1.579487361
1.355927648
1.21573997
1.139021734
1.101368943
1.08465537
1.077919519
1.075444643
1.074611454
1.074353032
1.074278793
1.074258941
1.074253978
1.074252813
1.074252556
1.074252502
1.074252491
1.074252489
1.074252489
1.074252489
1.074252489
1.074252489
1.074252489
1.074252489
1.074252489
1.074252489
1.074252489
1.074252489
1.074252489
1.074252489
1.074252489
1.074252489
1.074252489
1.074252489
1.074252489
1.074252489
1.074252489
1.074252489
1.074252489
1.074252489
1.074252489
55296.0215
55296.0799
55296.20698
55296.39467
55296.51185
55296.31054
55295.38985
55294.70837
1.396399333
1.292868481
1.202788555
1.141351337
1.105757572
1.087656979
1.079449146
1.076097673
1.07485563
1.074434888
1.074303762
1.074265944
1.074255798
1.074253254
1.074252656
1.074252523
1.074252496
1.07425249
1.074252489
1.074252489
1.074252489
1.074252489
1.074252489
1.074252489
1.074252489
1.074252489
1.074252489
1.074252489
1.074252489
1.074252489
1.074252489
1.074252489
1.074252489
1.074252489
1.074252489
1.074252489
1.074252489
1.074252489
1.074252489
1.074252489
1.074252489
1.074252489
55295.88068
55295.93087
55296.03006
55296.13769
55296.12048
55295.76241
55294.76085
55294.36174
1.210002586
1.168789763
1.131429671
1.104800397
1.088841024
1.080534373
1.076709009
1.075130454
1.074540969
1.074340106
1.074277209
1.074258996
1.074254094
1.074252861
1.07425257
1.074252506
1.074252492
1.074252489
1.074252489
1.074252489
1.074252489
1.074252489
1.074252489
1.074252489
1.074252489
1.074252489
1.074252489
1.074252489
1.074252489
1.074252489
1.074252489
1.074252489
1.074252489
1.074252489
1.074252489
1.074252489
1.074252489
1.074252489
1.074252489
1.074252489
1.074252489
1.074252489
55295.7418
55295.78522
55295.8536
55295.88053
55295.75107
55295.28676
55294.28398
55292.86079
1.132530097
1.114605241
1.098881588
1.087570434
1.080682263
1.077045971
1.075352759
1.074648052
1.074383105
1.074292327
1.07426377
1.074255468
1.074253226
1.07425266
1.074252526
1.074252497
1.07425249
1.074252489
1.074252489
1.074252489
1.074252489
1.074252489
1.074252489
1.074252489
1.074252489
1.074252489
1.074252489
1.074252489
1.074252489
1.074252489
1.074252489
1.074252489
1.074252489
1.074252489
1.074252489
1.074252489
1.074252489
1.074252489
1.074252489
1.074252489
1.074252489
1.074252489
55295.60058
55295.6367
55295.6645
55295.61575
55295.39707
55294.87059
55293.92196
55292.69817
1.099927412
1.091285873
1.084533342
1.079818697
1.076953854
1.075433176
1.074720188
1.074421501
1.074308552
1.074269657
1.074257368
1.074253781
1.074252809
1.074252564
1.074252505
1.074252492
1.074252489
1.074252489
1.074252489
1.074252489
1.074252489
1.074252489
1.074252489
1.074252489
1.074252489
1.074252489
1.074252489
1.074252489
1.074252489
1.074252489
1.074252489
1.074252489
1.074252489
1.074252489
1.074252489
1.074252489
1.074252489
1.074252489
1.074252489
1.074252489
1.074252489
1.074252489
55295.4489
55295.46761
55295.44874
55295.33547
55295.05206
55294.50007
55293.64527
55292.6646
1.086161398
1.081472782
1.078445709
1.07649358
1.075337945
1.074727989
1.074441555
1.074321092
1.074275336
1.074259511
1.074254491
1.074253021
1.074252621
1.07425252
1.074252496
1.07425249
1.074252489
1.074252489
1.074252489
1.074252489
1.074252489
1.074252489
1.074252489
1.074252489
1.074252489
1.074252489
1.074252489
1.074252489
1.074252489
1.074252489
1.074252489
1.074252489
1.074252489
1.074252489
1.074252489
1.074252489
1.074252489
1.074252489
1.074252489
1.074252489
1.074252489
1.074252489
55295.26628
55295.26001
55295.19787
55295.0348
55294.71087
55294.16361
55293.4288
55292.64495
1.080255998
1.07741198
1.075951889
1.075130062
1.074672017
1.074435643
1.074325369
1.074278998
1.074261345
1.074255219
1.07425327
1.074252697
1.074252541
1.074252501
1.074252491
1.074252489
1.074252489
1.074252489
1.074252489
1.074252489
1.074252489
1.074252489
1.074252489
1.074252489
1.074252489
1.074252489
1.074252489
1.074252489
1.074252489
1.074252489
1.074252489
1.074252489
1.074252489
1.074252489
1.074252489
1.074252489
1.074252489
1.074252489
1.074252489
1.074252489
1.074252489
1.074252489
55295.03189
55295.00238
55294.90458
55294.70652
55294.36288
55293.85138
55293.25433
55292.63273
1.077587361
1.075725088
1.074954461
1.074592027
1.074409912
1.074320347
1.074279378
1.074262267
1.07425576
1.0742535
1.074252779
1.074252566
1.074252508
1.074252493
1.07425249
1.074252489
1.074252489
1.074252489
1.074252489
1.074252489
1.074252489
1.074252489
1.074252489
1.074252489
1.074252489
1.074252489
1.074252489
1.074252489
1.074252489
1.074252489
1.074252489
1.074252489
1.074252489
1.074252489
1.074252489
1.074252489
1.074252489
1.074252489
1.074252489
1.074252489
1.074252489
1.074252489
55294.7303
55294.68259
55294.55924
55294.3424
55294.00493
55293.57205
55293.10223
55292.62326
1.076255351
1.074997009
1.074556928
1.074385334
1.074310687
1.074276889
1.074262038
1.074255945
1.074253644
1.074252846
1.074252591
1.074252516
1.074252496
1.07425249
1.074252489
1.074252489
1.074252489
1.074252489
1.074252489
1.074252489
1.074252489
1.074252489
1.074252489
1.074252489
1.074252489
1.074252489
1.074252489
1.074252489
1.074252489
1.074252489
1.074252489
1.074252489
1.074252489
1.074252489
1.074252489
1.074252489
1.074252489
1.074252489
1.074252489
1.074252489
1.074252489
1.074252489
55294.35332
55294.29486
55294.16157
55293.95124
55293.66041
55293.32568
55292.97004
55292.61465
1.075507031
1.074657993
1.074394204
1.074306557
1.07427415
1.074261124
1.074255782
1.074253666
1.07425288
1.07425261
1.074252524
1.074252498
1.074252491
1.074252489
1.074252489
1.074252489
1.074252489
1.074252489
1.074252489
1.074252489
1.074252489
1.074252489
1.074252489
1.074252489
1.074252489
1.074252489
1.074252489
1.074252489
1.074252489
1.074252489
1.074252489
1.074252489
1.074252489
1.074252489
1.074252489
1.074252489
1.074252489
1.074252489
1.074252489
1.074252489
1.074252489
1.074252489
55293.92094
55293.86486
55293.74668
55293.57454
55293.3572
55293.11596
55292.86072
55292.60821
1.075045383
1.074484068
1.074323375
1.074275933
1.074260829
1.074255559
1.074253607
1.074252879
1.074252617
1.074252528
1.0742525
1.074252492
1.07425249
1.074252489
1.074252489
1.074252489
1.074252489
1.074252489
1.074252489
1.074252489
1.074252489
1.074252489
1.074252489
1.074252489
1.074252489
1.074252489
1.074252489
1.074252489
1.074252489
1.074252489
1.074252489
1.074252489
1.074252489
1.074252489
1.074252489
1.074252489
1.074252489
1.074252489
1.074252489
1.074252489
1.074252489
1.074252489
55293.49826
55293.45825
55293.37452
55293.2547
55293.10832
55292.94581
55292.77324
55292.60645
1.074744242
1.074386497
1.074289742
1.07426337
1.074255889
1.074253614
1.07425287
1.074252616
1.07425253
1.074252501
1.074252492
1.07425249
1.074252489
1.074252489
1.074252489
1.074252489
1.074252489
1.074252489
1.074252489
1.074252489
1.074252489
1.074252489
1.074252489
1.074252489
1.074252489
1.074252489
1.074252489
1.074252489
1.074252489
1.074252489
1.074252489
1.074252489
1.074252489
1.074252489
1.074252489
1.074252489
1.074252489
1.074252489
1.074252489
1.074252489
1.074252489
1.074252489
55293.14979
55293.12718
55293.07705
55293.00366
55292.91379
55292.81297
55292.70522
55292.60542
1.074542541
1.074328003
1.074272199
1.074257747
1.074253955
1.074252921
1.074252622
1.07425253
1.074252502
1.074252493
1.07425249
1.074252489
1.074252489
1.074252489
1.074252489
1.074252489
1.074252489
1.074252489
1.074252489
1.074252489
1.074252489
1.074252489
1.074252489
1.074252489
1.074252489
1.074252489
1.074252489
1.074252489
1.074252489
1.074252489
1.074252489
1.074252489
1.074252489
1.074252489
1.074252489
1.074252489
1.074252489
1.074252489
1.074252489
1.074252489
1.074252489
1.074252489
55292.8875
55292.87669
55292.85113
55292.81273
55292.7651
55292.71109
55292.65297
55292.60237
1.074403437
1.074290691
1.074262093
1.074254912
1.074253113
1.074252656
1.074252535
1.074252502
1.074252493
1.07425249
1.074252489
1.074252489
1.074252489
1.074252489
1.074252489
1.074252489
1.074252489
1.074252489
1.074252489
1.074252489
1.074252489
1.074252489
1.074252489
1.074252489
1.074252489
1.074252489
1.074252489
1.074252489
1.074252489
1.074252489
1.074252489
1.074252489
1.074252489
1.074252489
1.074252489
1.074252489
1.074252489
1.074252489
1.074252489
1.074252489
1.074252489
1.074252489
55292.68433
55292.68127
55292.67346
55292.66147
55292.64645
55292.62932
55292.61085