/*--------------------------------*- C++ -*----------------------------------*\
  =========                 |
  \\      /  F ield         | OpenFOAM: The Open Source CFD Toolbox
   \\    /   O peration     | Website:  https://openfoam.org
    \\  /    A nd           | Version:  6
     \\/     M anipulation  |
\*---------------------------------------------------------------------------*/
FoamFile
{
    version     2.0;
    format      ascii;
    class       volScalarField;
    location    "0.05";
    object      Temperature;
}
// * * * * * * * * * * * * * * * * * * * * * * * * * * * * * * * * * * * * * //

dimensions      [0 0 0 1 0 0 0];

internalField   nonuniform List<scalar> 
2500
(
301.2746235
301.2323196
301.1246211
300.9596926
300.7536297
300.5192317
300.2669414
300.0074854
300.0010915
300.0002722
300.0000672
300.0000165
300.0000041
300.000001
300.0000003
300.0000001
300
300
300
300
300
300
300
300
300
300
300
300
300
300
300
300
300
300
300
300
300
300
300
300
300
300
300
300
300
300
300
300
300
300
304.0935842
303.9412528
303.5829598
303.047109
302.3858427
301.6401796
300.8422991
300.0237089
300.0035262
300.0008928
300.0002245
300.0000567
300.0000146
300.0000039
300.0000011
300.0000003
300.0000001
300
300
300
300
300
300
300
300
300
300
300
300
300
300
300
300
300
300
300
300
300
300
300
300
300
300
300
300
300
300
300
300
300
307.8085322
307.4823065
306.7643811
305.7211227
304.4545656
303.0473751
301.5585107
300.0441029
300.0067735
300.0017642
300.0004606
300.0001229
300.0000343
300.0000101
300.0000031
300.000001
300.0000003
300.0000001
300
300
300
300
300
300
300
300
300
300
300
300
300
300
300
300
300
300
300
300
300
300
300
300
300
300
300
300
300
300
300
300
312.8781875
312.2837073
311.0507025
309.3054247
307.2011605
304.8999904
302.4949197
300.0712099
300.0114784
300.0031295
300.0008702
300.0002542
300.0000795
300.0000263
300.0000089
300.000003
300.000001
300.0000003
300.0000001
300
300
300
300
300
300
300
300
300
300
300
300
300
300
300
300
300
300
300
300
300
300
300
300
300
300
300
300
300
300
300
319.238879
318.3760021
316.5752693
313.9893413
310.7840359
307.3037062
303.7066965
300.1072612
300.0184966
300.0054054
300.001655
300.0005474
300.0001948
300.0000717
300.0000261
300.0000091
300.000003
300.0000009
300.0000003
300.0000001
300
300
300
300
300
300
300
300
300
300
300
300
300
300
300
300
300
300
300
300
300
300
300
300
300
300
300
300
300
300
325.9962749
325.0624812
322.9542588
319.6806386
315.257806
310.3160194
305.2335553
300.1546089
300.0292451
300.0094592
300.0033065
300.0012616
300.0005055
300.0002016
300.0000769
300.0000275
300.0000091
300.0000028
300.0000008
300.0000002
300.0000001
300
300
300
300
300
300
300
300
300
300
300
300
300
300
300
300
300
300
300
300
300
300
300
300
300
300
300
300
300
332.1113744
331.3226741
329.2997567
325.7994995
320.493131
313.9265956
307.0981271
300.2165682
300.0466497
300.0173547
300.0070983
300.0030979
300.0013575
300.0005694
300.0002229
300.0000807
300.000027
300.0000084
300.0000024
300.0000006
300.0000002
300
300
300
300
300
300
300
300
300
300
300
300
300
300
300
300
300
300
300
300
300
300
300
300
300
300
300
300
300
337.1668731
336.665591
335.0104892
331.7027026
326.1109897
318.120632
309.2700391
300.299345
300.0775901
300.0342958
300.0163553
300.0079135
300.0036704
300.0015828
300.0006275
300.0002283
300.0000764
300.0000236
300.0000068
300.0000018
300.0000005
300.0000001
300
300
300
300
300
300
300
300
300
300
300
300
300
300
300
300
300
300
300
300
300
300
300
300
300
300
300
300
341.2034988
341.0971116
340.0185896
337.2111719
331.7624603
322.9396192
311.7987685
300.4217887
300.1394632
300.0734947
300.0395602
300.0204409
300.0097771
300.0042706
300.0017002
300.0006188
300.0002068
300.0000638
300.0000183
300.0000049
300.0000012
300.0000003
300.0000001
300
300
300
300
300
300
300
300
300
300
300
300
300
300
300
300
300
300
300
300
300
300
300
300
300
300
300
344.4189107
344.7556497
344.4242814
342.4214085
337.4991349
328.2984222
314.994538
300.6344426
300.2758996
300.1676182
300.097482
300.0521556
300.0252824
300.0110829
300.0044094
300.0016009
300.0005335
300.0001641
300.0000468
300.0000124
300.0000031
300.0000007
300.0000002
300
300
300
300
300
300
300
300
300
300
300
300
300
300
300
300
300
300
300
300
300
300
300
300
300
300
300
347.1423547
347.7978127
348.3085272
347.4281422
343.5082092
334.411444
319.1769283
301.0489369
300.5914884
300.3937992
300.2383685
300.1293359
300.062864
300.0275049
300.0109038
300.0039429
300.0013087
300.000401
300.000114
300.0000302
300.0000075
300.0000017
300.0000004
300.0000001
300
300
300
300
300
300
300
300
300
300
300
300
300
300
300
300
300
300
300
300
300
300
300
300
300
300
349.7210424
350.5209799
351.7905066
352.2981108
349.9035207
341.5584541
324.8218446
301.9141408
301.3258275
300.9244326
300.567762
300.308455
300.1493773
300.0650201
300.0256393
300.0092251
300.0030482
300.0009303
300.0002636
300.0000697
300.0000172
300.000004
300.0000009
300.0000002
300
300
300
300
300
300
300
300
300
300
300
300
300
300
300
300
300
300
300
300
300
300
300
300
300
300
352.296732
353.2359411
355.1087452
357.1649748
356.8399318
350.1133708
332.5719058
303.7700839
303.0022829
302.1223214
301.3017286
300.7027227
300.3377868
300.1459867
300.0572012
300.0204673
300.0067304
300.0020455
300.0005775
300.0001521
300.0000375
300.0000087
300.0000019
300.0000004
300.0000001
300
300
300
300
300
300
300
300
300
300
300
300
300
300
300
300
300
300
300
300
300
300
300
300
300
354.9486592
356.0591974
358.5005834
362.1675538
364.4975245
360.5206208
343.3788499
307.7353845
306.696247
304.699848
302.8509911
301.5222696
300.7246442
300.3105971
300.1208548
300.0429907
300.0140671
300.0042573
300.0011975
300.0003145
300.0000774
300.0000179
300.0000039
300.0000008
300.0000002
300
300
300
300
300
300
300
300
300
300
300
300
300
300
300
300
300
300
300
300
300
300
300
300
300
357.7493341
359.0784067
362.1195974
367.2514399
372.9050034
373.2311478
358.6043527
315.9822485
314.4575649
309.9466756
305.9328014
303.1245987
301.4710502
300.6249238
300.2414035
300.0853621
300.0277934
300.0083763
300.0023478
300.0006146
300.0001509
300.0000348
300.0000076
300.0000016
300.0000003
300.0000001
300
300
300
300
300
300
300
300
300
300
300
300
300
300
300
300
300
300
300
300
300
300
300
300
360.7238486
362.2667382
365.8886085
372.2891334
381.6623454
388.3496847
379.8161477
332.3350227
329.8428566
319.98092
311.6807467
306.0592099
302.8195453
301.1868816
300.4551558
300.1599998
300.0518428
300.0155611
300.0043466
300.0011345
300.0002778
300.000064
300.0000139
300.0000029
300.0000006
300.0000001
300
300
300
300
300
300
300
300
300
300
300
300
300
300
300
300
300
300
300
300
300
300
300
300
363.8979533
365.6401562
369.8117104
377.3618279
389.6643659
405.1082179
408.2860475
362.6528108
358.334844
337.8878814
321.6803483
311.072083
305.092101
302.1242428
300.8088619
300.2827245
300.0911837
300.0272646
300.0075911
300.0019759
300.0004826
300.000111
300.0000241
300.000005
300.000001
300.0000002
300
300
300
300
300
300
300
300
300
300
300
300
300
300
300
300
300
300
300
300
300
300
300
300
367.3281684
369.3038506
374.1219226
383.0141738
397.9413147
421.4529055
444.2171075
414.3280117
407.1812996
367.5086798
337.8185778
319.0211494
308.6493938
303.5772377
301.353007
300.4704003
300.1510564
300.0450058
300.0124931
300.0032436
300.0007905
300.0001814
300.0000393
300.0000081
300.0000016
300.0000003
300.0000001
300
300
300
300
300
300
300
300
300
300
300
300
300
300
300
300
300
300
300
300
300
300
300
371.0373295
373.3207016
378.9929632
389.7126687
408.0441052
438.8326517
485.8407691
494.3582539
484.0634486
412.6179534
361.8390197
330.6604691
313.7958226
305.6603714
302.1277148
300.7361343
300.2354586
300.0699254
300.019358
300.0050145
300.0012197
300.0002795
300.0000605
300.0000124
300.0000024
300.0000004
300.0000001
300
300
300
300
300
300
300
300
300
300
300
300
300
300
300
300
300
300
300
300
300
300
300
374.972459
377.6547787
384.4485651
397.6419141
420.9042602
460.8039366
530.0299288
606.250139
594.2531884
475.3942644
394.5856525
346.2954178
320.6343371
308.4059331
303.142399
301.0824759
300.3450311
300.1021729
300.0282181
300.0072948
300.0017713
300.0004052
300.0000876
300.0000179
300.0000035
300.0000006
300.0000001
300
300
300
300
300
300
300
300
300
300
300
300
300
300
300
300
300
300
300
300
300
300
300
378.9791092
382.1356537
390.2773878
406.487341
436.0582357
488.2915791
583.2077533
746.4588413
736.6371628
554.4744819
435.104052
365.3929659
328.9084865
311.7043043
304.3547453
301.4945192
300.4749453
300.1403009
300.0386697
300.0099796
300.0024196
300.0005529
300.0001194
300.0000244
300.0000048
300.0000009
300.0000002
300
300
300
300
300
300
300
300
300
300
300
300
300
300
300
300
300
300
300
300
300
300
300
382.8059347
386.4737428
396.0828598
415.6348927
452.3797041
519.8312977
644.4216021
901.8504027
900.1352253
643.3908552
479.9826933
386.3169359
337.9017183
315.2678739
305.6585615
301.9360621
300.6137626
300.1809474
300.0497903
300.0128317
300.0031074
300.0007093
300.000153
300.0000313
300.0000061
300.0000011
300.0000002
300
300
300
300
300
300
300
300
300
300
300
300
300
300
300
300
300
300
300
300
300
300
300
386.1316223
390.2909899
401.3204462
424.1582757
468.0312852
551.0763615
707.5612419
1053.317519
1063.121663
730.4931226
523.4064881
406.3841189
346.4710234
318.6470845
306.8903757
302.3520254
300.7442402
300.2190814
300.0602077
300.0155
300.0037502
300.0008553
300.0001844
300.0000377
300.0000073
300.0000014
300.0000002
300
300
300
300
300
300
300
300
300
300
300
300
300
300
300
300
300
300
300
300
300
300
300
388.6123521
393.1730065
405.3725175
430.9770985
481.0288089
577.9187237
765.5411372
1175.941268
1196.608418
800.8885172
558.1747546
422.3447361
353.2538286
321.312234
307.8592564
302.6785114
300.8464801
300.2489225
300.0683506
300.0175838
300.0042518
300.0009692
300.0002089
300.0000427
300.0000083
300.0000015
300.0000003
300
300
300
300
300
300
300
300
300
300
300
300
300
300
300
300
300
300
300
300
300
300
300
389.9457465
394.7390543
407.623465
434.8865601
488.7888541
594.4456339
805.7154605
1245.909328
1272.302442
840.4456844
577.5927683
431.2208507
357.0144621
322.786592
308.3943392
302.8585858
300.9028133
300.265351
300.0728306
300.0187296
300.0045274
300.0010318
300.0002223
300.0000454
300.0000088
300.0000016
300.0000003
300
300
300
300
300
300
300
300
300
300
300
300
300
300
300
300
300
300
300
300
300
300
300
389.9457438
394.7390518
407.623463
434.8865592
488.7888546
594.4456354
805.7154569
1245.909323
1272.302436
840.4456807
577.5927666
431.22085
357.0144618
322.7865919
308.3943391
302.8585858
300.9028133
300.265351
300.0728306
300.0187296
300.0045274
300.0010318
300.0002223
300.0000454
300.0000088
300.0000016
300.0000003
300
300
300
300
300
300
300
300
300
300
300
300
300
300
300
300
300
300
300
300
300
300
300
388.6123438
393.1729989
405.3725118
430.9770962
481.0288115
577.91873
765.5411453
1175.941257
1196.608401
800.8885078
558.1747505
422.3447344
353.2538279
321.3122338
307.8592563
302.6785114
300.8464801
300.2489224
300.0683506
300.0175838
300.0042518
300.0009692
300.0002089
300.0000427
300.0000083
300.0000015
300.0000003
300
300
300
300
300
300
300
300
300
300
300
300
300
300
300
300
300
300
300
300
300
300
300
386.1316083
390.290977
401.3204363
424.1582716
468.0312906
551.0763789
707.5612723
1053.31751
1063.121645
730.4931126
523.406484
406.3841173
346.4710228
318.6470842
306.8903756
302.3520254
300.7442402
300.2190814
300.0602077
300.0155
300.0037502
300.0008553
300.0001844
300.0000377
300.0000073
300.0000014
300.0000002
300
300
300
300
300
300
300
300
300
300
300
300
300
300
300
300
300
300
300
300
300
300
300
382.8059147
386.4737242
396.0828447
415.6348847
452.3797081
519.8313196
644.4216432
901.8504042
900.1352177
643.3908516
479.9826921
386.3169355
337.9017182
315.2678738
305.6585615
301.9360621
300.6137626
300.1809474
300.0497903
300.0128317
300.0031074
300.0007093
300.000153
300.0000313
300.0000061
300.0000011
300.0000002
300
300
300
300
300
300
300
300
300
300
300
300
300
300
300
300
300
300
300
300
300
300
300
378.979083
382.1356288
390.277366
406.4873255
436.0582309
488.2915901
583.207782
746.4588623
736.6371739
554.4744878
435.1040548
365.392967
328.9084869
311.7043044
304.3547454
301.4945193
300.4749453
300.1403009
300.0386697
300.0099796
300.0024196
300.0005529
300.0001194
300.0000244
300.0000048
300.0000009
300.0000002
300
300
300
300
300
300
300
300
300
300
300
300
300
300
300
300
300
300
300
300
300
300
300
374.9724266
377.6547471
384.4485353
397.6418878
420.9042385
460.8039161
530.0298903
606.2501844
594.253214
475.3942766
394.5856577
346.29542
320.6343379
308.4059334
303.1423991
301.082476
300.3450311
300.1021729
300.0282181
300.0072948
300.0017713
300.0004052
300.0000876
300.0000179
300.0000035
300.0000006
300.0000001
300
300
300
300
300
300
300
300
300
300
300
300
300
300
300
300
300
300
300
300
300
300
300
371.0372914
373.3206635
378.9929251
389.7126304
408.0440652
438.8326075
485.8407146
494.3582966
484.0634708
412.6179644
361.8390247
330.6604712
313.7958234
305.6603717
302.1277149
300.7361343
300.2354586
300.0699254
300.019358
300.0050145
300.0012197
300.0002795
300.0000605
300.0000124
300.0000024
300.0000004
300.0000001
300
300
300
300
300
300
300
300
300
300
300
300
300
300
300
300
300
300
300
300
300
300
300
367.3281255
369.303807
374.1218768
383.0141234
397.9412543
421.4528292
444.2170507
414.3280312
407.1813113
367.5086864
337.818581
319.0211509
308.6493944
303.5772379
301.353007
300.4704003
300.1510564
300.0450058
300.0124931
300.0032436
300.0007905
300.0001814
300.0000393
300.0000081
300.0000016
300.0000003
300.0000001
300
300
300
300
300
300
300
300
300
300
300
300
300
300
300
300
300
300
300
300
300
300
300
363.8979072
365.6401086
369.8116589
377.3617684
389.6642928
405.1081426
408.2859947
362.6528175
358.334849
337.8878845
321.68035
311.0720839
305.0921014
302.1242429
300.808862
300.2827245
300.0911837
300.0272646
300.0075911
300.0019759
300.0004826
300.000111
300.0000241
300.000005
300.000001
300.0000002
300
300
300
300
300
300
300
300
300
300
300
300
300
300
300
300
300
300
300
300
300
300
300
300
360.7238009
362.2666887
365.8885542
372.2890694
381.6622738
388.3496163
379.8161029
332.3350252
329.8428584
319.9809212
311.6807474
306.0592102
302.8195455
301.1868816
300.4551558
300.1599998
300.0518428
300.0155611
300.0043466
300.0011345
300.0002778
300.000064
300.0000139
300.0000029
300.0000006
300.0000001
300
300
300
300
300
300
300
300
300
300
300
300
300
300
300
300
300
300
300
300
300
300
300
300
357.7492864
359.0783572
362.1195434
367.2513781
372.9049376
373.2310881
358.6043168
315.9822491
314.4575653
309.9466759
305.9328017
303.1245988
301.4710503
300.6249238
300.2414035
300.0853621
300.0277934
300.0083763
300.0023478
300.0006146
300.0001509
300.0000348
300.0000076
300.0000016
300.0000003
300.0000001
300
300
300
300
300
300
300
300
300
300
300
300
300
300
300
300
300
300
300
300
300
300
300
300
354.9486128
356.0591495
358.5005317
362.1674971
364.4974654
360.5205693
343.3788219
307.7353841
306.6962468
304.6998479
302.8509911
301.5222697
300.7246442
300.3105971
300.1208548
300.0429907
300.0140671
300.0042573
300.0011975
300.0003145
300.0000774
300.0000179
300.0000039
300.0000008
300.0000002
300
300
300
300
300
300
300
300
300
300
300
300
300
300
300
300
300
300
300
300
300
300
300
300
300
352.2966875
353.2358956
355.108697
357.1649229
356.8398788
350.113326
332.5718825
303.7700828
303.0022826
302.1223213
301.3017286
300.7027227
300.3377868
300.1459867
300.0572012
300.0204673
300.0067304
300.0020455
300.0005775
300.0001521
300.0000375
300.0000087
300.0000019
300.0000004
300.0000001
300
300
300
300
300
300
300
300
300
300
300
300
300
300
300
300
300
300
300
300
300
300
300
300
300
349.7210001
350.5209368
351.7904615
352.2980628
349.9034729
341.5584147
324.8218229
301.9141399
301.3258272
300.9244325
300.567762
300.3084549
300.1493773
300.0650201
300.0256392
300.0092251
300.0030482
300.0009303
300.0002636
300.0000697
300.0000172
300.000004
300.0000009
300.0000002
300
300
300
300
300
300
300
300
300
300
300
300
300
300
300
300
300
300
300
300
300
300
300
300
300
300
347.1423142
347.7977717
348.3084842
347.4280974
343.5081658
334.4114087
319.1769086
301.0489361
300.5914882
300.3937991
300.2383685
300.1293359
300.062864
300.0275049
300.0109038
300.0039429
300.0013087
300.000401
300.000114
300.0000302
300.0000075
300.0000017
300.0000004
300.0000001
300
300
300
300
300
300
300
300
300
300
300
300
300
300
300
300
300
300
300
300
300
300
300
300
300
300
344.4188714
344.7556095
344.4242399
342.4213666
337.4990956
328.2983908
314.994521
300.634442
300.2758995
300.1676181
300.097482
300.0521556
300.0252824
300.0110829
300.0044094
300.0016009
300.0005335
300.0001641
300.0000468
300.0000124
300.0000031
300.0000007
300.0000002
300
300
300
300
300
300
300
300
300
300
300
300
300
300
300
300
300
300
300
300
300
300
300
300
300
300
300
341.2034594
341.0970716
340.0185492
337.2111325
331.7624246
322.9395917
311.7987544
300.4217883
300.1394631
300.0734947
300.0395602
300.0204409
300.0097771
300.0042706
300.0017002
300.0006188
300.0002068
300.0000638
300.0000183
300.0000049
300.0000012
300.0000003
300.0000001
300
300
300
300
300
300
300
300
300
300
300
300
300
300
300
300
300
300
300
300
300
300
300
300
300
300
300
337.1668327
336.6655506
335.0104495
331.7026651
326.1109568
318.120608
309.2700271
300.2993447
300.07759
300.0342958
300.0163553
300.0079135
300.0036704
300.0015828
300.0006275
300.0002283
300.0000764
300.0000236
300.0000068
300.0000018
300.0000005
300.0000001
300
300
300
300
300
300
300
300
300
300
300
300
300
300
300
300
300
300
300
300
300
300
300
300
300
300
300
300
332.1113327
331.3226331
329.2997175
325.7994636
320.493101
313.9265756
307.098117
300.2165679
300.0466497
300.0173547
300.0070983
300.0030979
300.0013575
300.0005694
300.0002229
300.0000807
300.000027
300.0000084
300.0000024
300.0000006
300.0000002
300
300
300
300
300
300
300
300
300
300
300
300
300
300
300
300
300
300
300
300
300
300
300
300
300
300
300
300
300
325.9962331
325.0624409
322.9542214
319.680606
315.2577807
310.3160028
305.2335471
300.1546086
300.0292451
300.0094592
300.0033065
300.0012616
300.0005055
300.0002016
300.0000769
300.0000275
300.0000091
300.0000028
300.0000008
300.0000002
300.0000001
300
300
300
300
300
300
300
300
300
300
300
300
300
300
300
300
300
300
300
300
300
300
300
300
300
300
300
300
300
319.2388407
318.3759661
316.5752374
313.9893147
310.784016
307.3036931
303.70669
300.107261
300.0184965
300.0054054
300.001655
300.0005474
300.0001948
300.0000717
300.0000261
300.0000091
300.000003
300.0000009
300.0000003
300.0000001
300
300
300
300
300
300
300
300
300
300
300
300
300
300
300
300
300
300
300
300
300
300
300
300
300
300
300
300
300
300
312.8781577
312.2836798
311.0506786
309.3054052
307.2011459
304.8999807
302.4949149
300.0712098
300.0114783
300.0031295
300.0008702
300.0002542
300.0000795
300.0000263
300.0000089
300.000003
300.000001
300.0000003
300.0000001
300
300
300
300
300
300
300
300
300
300
300
300
300
300
300
300
300
300
300
300
300
300
300
300
300
300
300
300
300
300
300
307.8085126
307.4822883
306.7643653
305.7211097
304.4545558
303.0473686
301.5585074
300.0441028
300.0067735
300.0017642
300.0004606
300.0001229
300.0000343
300.0000101
300.0000031
300.000001
300.0000003
300.0000001
300
300
300
300
300
300
300
300
300
300
300
300
300
300
300
300
300
300
300
300
300
300
300
300
300
300
300
300
300
300
300
300
304.0935735
303.9412427
303.5829509
303.0471017
302.3858372
301.640176
300.8422972
300.0237089
300.0035262
300.0008928
300.0002245
300.0000567
300.0000146
300.0000039
300.0000011
300.0000003
300.0000001
300
300
300
300
300
300
300
300
300
300
300
300
300
300
300
300
300
300
300
300
300
300
300
300
300
300
300
300
300
300
300
300
300
301.2746201
301.2323163
301.1246182
300.9596903
300.7536279
300.5192305
300.2669408
300.0074854
300.0010915
300.0002722
300.0000672
300.0000165
300.0000041
300.000001
300.0000003
300.0000001
300
300
300
300
300
300
300
300
300
300
300
300
300
300
300
300
300
300
300
300
300
300
300
300
300
300
300
300
300
300
300
300
300
300
)
;

boundaryField
{
    lowerWall
    {
        type            fixedValue;
        value           uniform 300;
    }
    atmosphere
    {
        type            zeroGradient;
    }
    rightWall
    {
        type            empty;
    }
    leftWall
    {
        type            empty;
    }
    frontAndBack
    {
        type            fixedValue;
        value           uniform 300;
    }
}


// ************************************************************************* //
