/*--------------------------------*- C++ -*----------------------------------*\
  =========                 |
  \\      /  F ield         | OpenFOAM: The Open Source CFD Toolbox
   \\    /   O peration     | Website:  https://openfoam.org
    \\  /    A nd           | Version:  6
     \\/     M anipulation  |
\*---------------------------------------------------------------------------*/
FoamFile
{
    version     2.0;
    format      ascii;
    class       volVectorField;
    location    "0.05";
    object      U;
}
// * * * * * * * * * * * * * * * * * * * * * * * * * * * * * * * * * * * * * //

dimensions      [0 1 -1 0 0 0 0];

internalField   nonuniform List<vector> 
2500
(
(0 -0.4068122212 -0.02405138005)
(0 -0.3179499659 -0.0320937321)
(0 -0.2570313819 -0.03368635208)
(0 -0.1875372216 -0.03229265008)
(0 -0.1257211057 -0.03013931247)
(0 -0.06861973632 -0.02697428203)
(0 -0.007199165584 -0.02043399012)
(0 0.0002438214784 -0.0006093559278)
(0 -1.639185036e-14 -3.961479172e-18)
(0 -3.260273319e-14 -1.389731251e-16)
(0 -3.215075419e-14 -2.716593441e-16)
(0 -3.148377468e-14 -3.953275296e-16)
(0 -3.058237322e-14 -5.060017914e-16)
(0 -2.947550125e-14 -6.008045264e-16)
(0 -2.8196696e-14 -6.77951525e-16)
(0 -2.678200289e-14 -7.367186013e-16)
(0 -2.526796204e-14 -7.773338664e-16)
(0 -2.36898706e-14 -8.008103148e-16)
(0 -2.208041184e-14 -8.087467741e-16)
(0 -2.04686871e-14 -8.031243471e-16)
(0 -1.887963866e-14 -7.861192646e-16)
(0 -1.733381723e-14 -7.599453764e-16)
(0 -1.584742895e-14 -7.267323497e-16)
(0 -1.443258976e-14 -6.884400073e-16)
(0 -1.30977182e-14 -6.46805447e-16)
(0 -1.184800677e-14 -6.033174822e-16)
(0 -1.068592302e-14 -5.59212199e-16)
(0 -9.611704561e-15 -5.154836063e-16)
(0 -8.623822787e-15 -4.729040871e-16)
(0 -7.719400261e-15 -4.320503476e-16)
(0 -6.894573892e-15 -3.933315847e-16)
(0 -6.144801898e-15 -3.570175391e-16)
(0 -5.465116296e-15 -3.232649008e-16)
(0 -4.85032512e-15 -2.921411623e-16)
(0 -4.295169921e-15 -2.636454884e-16)
(0 -3.794444609e-15 -2.377265011e-16)
(0 -3.343081693e-15 -2.142970982e-16)
(0 -2.936211604e-15 -1.932465524e-16)
(0 -2.56920023e-15 -1.744502077e-16)
(0 -2.237669125e-15 -1.577771113e-16)
(0 -1.937502185e-15 -1.430959147e-16)
(0 -1.664841946e-15 -1.302793554e-16)
(0 -1.416078064e-15 -1.192075983e-16)
(0 -1.187829998e-15 -1.097706883e-16)
(0 -9.769254549e-16 -1.018703446e-16)
(0 -7.803756535e-16 -9.542134404e-17)
(0 -5.953478403e-16 -9.035289849e-17)
(0 -4.191340302e-16 -8.661107358e-17)
(0 -2.491102832e-16 -8.416592996e-17)
(0 -8.266084619e-17 -8.30389702e-17)
(0 -0.4317953191 -0.07816991409)
(0 -0.3239501352 -0.1007543969)
(0 -0.2586028026 -0.1042433135)
(0 -0.1844301904 -0.09820869584)
(0 -0.1216428475 -0.09061664051)
(0 -0.06532768912 -0.08041750374)
(0 -0.005953344034 -0.06029022009)
(0 0.0002311578606 -0.00109942526)
(0 -1.652818205e-14 -5.225289643e-18)
(0 -3.287227656e-14 -4.206390717e-16)
(0 -3.240710859e-14 -8.240328856e-16)
(0 -3.171811713e-14 -1.199023653e-15)
(0 -3.078785022e-14 -1.533935386e-15)
(0 -2.964745098e-14 -1.820139236e-15)
(0 -2.833261008e-14 -2.052316121e-15)
(0 -2.688138524e-14 -2.2284011e-15)
(0 -2.533205376e-14 -2.349245756e-15)
(0 -2.372128351e-14 -2.41808797e-15)
(0 -2.208272587e-14 -2.439927662e-15)
(0 -2.04460596e-14 -2.420895207e-15)
(0 -1.883645969e-14 -2.367676757e-15)
(0 -1.727443031e-14 -2.287035649e-15)
(0 -1.577592358e-14 -2.185446547e-15)
(0 -1.435266285e-14 -2.068841815e-15)
(0 -1.301259568e-14 -1.942458322e-15)
(0 -1.176041352e-14 -1.810766971e-15)
(0 -1.059808915e-14 -1.677465384e-15)
(0 -9.525396449e-15 -1.545515147e-15)
(0 -8.540389528e-15 -1.417207466e-15)
(0 -7.639827759e-15 -1.294244297e-15)
(0 -6.819541084e-15 -1.177825174e-15)
(0 -6.074735215e-15 -1.068732912e-15)
(0 -5.400239919e-15 -9.674137216e-16)
(0 -4.790705707e-15 -8.740492059e-16)
(0 -4.240755259e-15 -7.886190671e-16)
(0 -3.745096219e-15 -7.10954347e-16)
(0 -3.298601744e-15 -6.407816332e-16)
(0 -2.896364713e-15 -5.777590418e-16)
(0 -2.533730789e-15 -5.215049674e-16)
(0 -2.206314832e-15 -4.716206456e-16)
(0 -1.910004429e-15 -4.277075459e-16)
(0 -1.64095363e-15 -3.893805351e-16)
(0 -1.395569397e-15 -3.562776524e-16)
(0 -1.170492745e-15 -3.280672372e-16)
(0 -9.625761107e-16 -3.044530596e-16)
(0 -7.688582074e-16 -2.851780698e-16)
(0 -5.865375699e-16 -2.700274684e-16)
(0 -4.129470617e-16 -2.588322443e-16)
(0 -2.455381798e-16 -2.514757806e-16)
(0 -8.153388643e-17 -2.479111911e-16)
(0 -0.4769382619 -0.1509669751)
(0 -0.3230859231 -0.1823933849)
(0 -0.2548018335 -0.1834622368)
(0 -0.1738176004 -0.167783887)
(0 -0.1123170167 -0.1513715782)
(0 -0.05873897359 -0.131849869)
(0 -0.004700537933 -0.09700320134)
(0 0.0001938360533 -0.001475468228)
(0 -1.681031681e-14 -4.507036556e-18)
(0 -3.342481635e-14 -7.165588853e-16)
(0 -3.292913877e-14 -1.404837123e-15)
(0 -3.219367718e-14 -2.042823367e-15)
(0 -3.120348881e-14 -2.610607918e-15)
(0 -2.999388198e-14 -3.093540138e-15)
(0 -2.860495787e-14 -3.482821386e-15)
(0 -2.707893253e-14 -3.775383084e-15)
(0 -2.545764891e-14 -3.973230004e-15)
(0 -2.37805525e-14 -4.082448722e-15)
(0 -2.208321907e-14 -4.112071506e-15)
(0 -2.03964362e-14 -4.072952465e-15)
(0 -1.87457791e-14 -3.976766182e-15)
(0 -1.715158702e-14 -3.835191323e-15)
(0 -1.562923512e-14 -3.659301228e-15)
(0 -1.418960153e-14 -3.459154073e-15)
(0 -1.283964336e-14 -3.243557065e-15)
(0 -1.158301383e-14 -3.019970585e-15)
(0 -1.04206712e-14 -2.794516629e-15)
(0 -9.351446643e-15 -2.572058754e-15)
(0 -8.372551937e-15 -2.356325909e-15)
(0 -7.480017968e-15 -2.150058489e-15)
(0 -6.669062507e-15 -1.955160687e-15)
(0 -5.934390446e-15 -1.772848281e-15)
(0 -5.27043259e-15 -1.603785011e-15)
(0 -4.671530465e-15 -1.448203874e-15)
(0 -4.132075062e-15 -1.306011867e-15)
(0 -3.646607175e-15 -1.176878238e-15)
(0 -3.209886388e-15 -1.060307272e-15)
(0 -2.816934938e-15 -9.556971718e-16)
(0 -2.463061834e-15 -8.623868113e-16)
(0 -2.143871704e-15 -7.796922158e-16)
(0 -1.855262075e-15 -7.069345033e-16)
(0 -1.593412053e-15 -6.434608889e-16)
(0 -1.354764766e-15 -5.886601547e-16)
(0 -1.136005405e-15 -5.419737993e-16)
(0 -9.340362876e-16 -5.029038908e-16)
(0 -7.459500623e-16 -4.71018476e-16)
(0 -5.690020148e-16 -4.459551922e-16)
(0 -4.005823424e-16 -4.274233065e-16)
(0 -2.3818923e-16 -4.152028218e-16)
(0 -7.909625668e-17 -4.091322644e-16)
(0 -0.545815538 -0.2605747322)
(0 -0.2959402646 -0.2823255046)
(0 -0.2291955265 -0.2671570967)
(0 -0.1386966347 -0.2360647177)
(0 -0.08958234294 -0.2078386684)
(0 -0.04659733651 -0.1784154448)
(0 -0.002777478215 -0.1282995009)
(0 0.000136230081 -0.001628695308)
(0 -1.724559816e-14 -6.015798256e-18)
(0 -3.427705216e-14 -1.03923606e-15)
(0 -3.373337307e-14 -2.035919663e-15)
(0 -3.292388792e-14 -2.956784522e-15)
(0 -3.183856699e-14 -3.772085705e-15)
(0 -3.051966445e-14 -4.460541854e-15)
(0 -2.901445302e-14 -5.009995697e-15)
(0 -2.737179385e-14 -5.41703072e-15)
(0 -2.563911939e-14 -5.685795475e-15)
(0 -2.386012501e-14 -5.826360575e-15)
(0 -2.207322961e-14 -5.852913933e-15)
(0 -2.031075427e-14 -5.782034455e-15)
(0 -1.859869854e-14 -5.631201444e-15)
(0 -1.695696536e-14 -5.417618342e-15)
(0 -1.539988633e-14 -5.157367136e-15)
(0 -1.393691869e-14 -4.864867794e-15)
(0 -1.257341219e-14 -4.552593898e-15)
(0 -1.131137309e-14 -4.230987039e-15)
(0 -1.015017732e-14 -3.90851378e-15)
(0 -9.087205729e-15 -3.591815928e-15)
(0 -8.118389263e-15 -3.285914209e-15)
(0 -7.238662536e-15 -2.994435153e-15)
(0 -6.442330876e-15 -2.719839875e-15)
(0 -5.723359538e-15 -2.463640748e-15)
(0 -5.075595512e-15 -2.226597762e-15)
(0 -4.492932564e-15 -2.00889057e-15)
(0 -3.969429623e-15 -1.810265204e-15)
(0 -3.499391624e-15 -1.630156325e-15)
(0 -3.077420678e-15 -1.467787036e-15)
(0 -2.698444252e-15 -1.322248856e-15)
(0 -2.357725833e-15 -1.192564657e-15)
(0 -2.050862524e-15 -1.077737302e-15)
(0 -1.773773102e-15 -9.767865488e-16)
(0 -1.522679281e-15 -8.887764846e-16)
(0 -1.294082307e-15 -8.128354808e-16)
(0 -1.084736481e-15 -7.481703372e-16)
(0 -8.916207873e-16 -6.940760077e-16)
(0 -7.119095088e-16 -6.499420196e-16)
(0 -5.429424004e-16 -6.152564107e-16)
(0 -3.821946913e-16 -5.896076473e-16)
(0 -2.272471377e-16 -5.726845109e-16)
(0 -7.546332895e-17 -5.642740865e-16)
(0 -0.7051377362 -0.4495275845)
(0 -0.3223247652 -0.4306459786)
(0 -0.2169039075 -0.3626196623)
(0 -0.08165265684 -0.2964281578)
(0 -0.04094019355 -0.2437842938)
(0 -0.02350625027 -0.2094465048)
(0 0.0001284743388 -0.1500995098)
(0 5.745489795e-05 -0.001374391669)
(0 -1.785015448e-14 -5.793490408e-18)
(0 -3.545977253e-14 -1.401442926e-15)
(0 -3.484668723e-14 -2.74280786e-15)
(0 -3.392984322e-14 -3.976265912e-15)
(0 -3.270724614e-14 -5.060361369e-15)
(0 -3.123179197e-14 -5.96650029e-15)
(0 -2.956144673e-14 -6.679548771e-15)
(0 -2.775473231e-14 -7.19691644e-15)
(0 -2.586697877e-14 -7.52653711e-15)
(0 -2.394767096e-14 -7.684268978e-15)
(0 -2.203889295e-14 -7.691181141e-15)
(0 -2.017472371e-14 -7.571067494e-15)
(0 -1.838136299e-14 -7.348388238e-15)
(0 -1.667775271e-14 -7.046717316e-15)
(0 -1.507648457e-14 -6.687686167e-15)
(0 -1.358482829e-14 -6.290361206e-15)
(0 -1.220576261e-14 -5.870968281e-15)
(0 -1.093893371e-14 -5.442873467e-15)
(0 -9.78150009e-15 -5.016737826e-15)
(0 -8.728847072e-15 -4.600777898e-15)
(0 -7.775171161e-15 -4.201079394e-15)
(0 -6.913943634e-15 -3.82192628e-15)
(0 -6.138268103e-15 -3.466119956e-15)
(0 -5.441148333e-15 -3.135273056e-15)
(0 -4.815682412e-15 -2.830069771e-15)
(0 -4.255197907e-15 -2.550489696e-15)
(0 -3.753340817e-15 -2.295995638e-15)
(0 -3.304129008e-15 -2.065687845e-15)
(0 -2.901978919e-15 -1.858428247e-15)
(0 -2.541712559e-15 -1.672938732e-15)
(0 -2.21855028e-15 -1.507877516e-15)
(0 -1.928093596e-15 -1.361897389e-15)
(0 -1.666301257e-15 -1.233689301e-15)
(0 -1.429460985e-15 -1.122014249e-15)
(0 -1.214158619e-15 -1.025726042e-15)
(0 -1.017245932e-15 -9.437870501e-16)
(0 -8.358079699e-16 -8.752786883e-16)
(0 -6.671304652e-16 -8.194080234e-16)
(0 -5.086676425e-16 -7.755115752e-16)
(0 -3.580104427e-16 -7.430571213e-16)
(0 -2.128556691e-16 -7.216441834e-16)
(0 -7.068583222e-17 -7.110042691e-16)
(0 -0.955612767 -0.7139711886)
(0 -0.5523776075 -0.6813023499)
(0 -0.338606363 -0.5437021297)
(0 -0.1002476983 -0.4015193892)
(0 0.01088815454 -0.2657568689)
(0 0.01334817714 -0.2121231733)
(0 0.003067207223 -0.1549424028)
(0 -3.660643237e-05 -0.0005920266271)
(0 -1.864732888e-14 -4.93133233e-19)
(0 -3.701868156e-14 -1.819593208e-15)
(0 -3.630819606e-14 -3.557577192e-15)
(0 -3.524144143e-14 -5.145045686e-15)
(0 -3.382880137e-14 -6.526526274e-15)
(0 -3.213885185e-14 -7.665486417e-15)
(0 -3.024486917e-14 -8.544729961e-15)
(0 -2.821878219e-14 -9.164509417e-15)
(0 -2.612647193e-14 -9.539141325e-15)
(0 -2.402476904e-14 -9.692983262e-15)
(0 -2.196002813e-14 -9.656470592e-15)
(0 -1.996796137e-14 -9.462670311e-15)
(0 -1.807434837e-14 -9.144576126e-15)
(0 -1.629626329e-14 -8.733189035e-15)
(0 -1.464353022e-14 -8.256312888e-15)
(0 -1.31202008e-14 -7.737936539e-15)
(0 -1.172592445e-14 -7.198057719e-15)
(0 -1.045714263e-14 -6.652812569e-15)
(0 -9.308081749e-15 -6.114796422e-15)
(0 -8.271547297e-15 -5.593487046e-15)
(0 -7.339537644e-15 -5.095706177e-15)
(0 -6.503703098e-15 -4.626076122e-15)
(0 -5.755677652e-15 -4.1874448e-15)
(0 -5.087309353e-15 -3.781264803e-15)
(0 -4.490812152e-15 -3.407920668e-15)
(0 -3.958858431e-15 -3.067004118e-15)
(0 -3.484627773e-15 -2.757540486e-15)
(0 -3.061824233e-15 -2.478171345e-15)
(0 -2.684671566e-15 -2.227299152e-15)
(0 -2.347893522e-15 -2.003199787e-15)
(0 -2.04668449e-15 -1.804108532e-15)
(0 -1.776674309e-15 -1.628284514e-15)
(0 -1.533889962e-15 -1.474057967e-15)
(0 -1.314716023e-15 -1.33986403e-15)
(0 -1.115855108e-15 -1.224266187e-15)
(0 -9.342891268e-16 -1.125971887e-15)
(0 -7.672417606e-16 -1.043842396e-15)
(0 -6.121423957e-16 -9.76898513e-16)
(0 -4.665914983e-16 -9.243234321e-16)
(0 -3.283272995e-16 -8.854637517e-16)
(0 -1.951942855e-16 -8.59829482e-16)
(0 -6.482341463e-17 -8.470938836e-16)
(0 -1.067851333 -0.9204105227)
(0 -0.8566497559 -0.9761231643)
(0 -0.5906778905 -0.8441255673)
(0 -0.2866442558 -0.6368784373)
(0 -0.0231598737 -0.355565058)
(0 0.04990923848 -0.2032745369)
(0 0.004104697271 -0.1370205553)
(0 -0.0001632604006 0.0003238448063)
(0 -1.967119193e-14 6.816200256e-18)
(0 -3.901975344e-14 -2.31717968e-15)
(0 -3.817213971e-14 -4.522820226e-15)
(0 -3.68987923e-14 -6.519718945e-15)
(0 -3.522768687e-14 -8.235115134e-15)
(0 -3.324999566e-14 -9.624102072e-15)
(0 -3.106046973e-14 -1.066930506e-14)
(0 -2.874914367e-14 -1.137719985e-14)
(0 -2.639545261e-14 -1.177250521e-14)
(0 -2.406500023e-14 -1.189203906e-14)
(0 -2.180858e-14 -1.177904808e-14)
(0 -1.966282924e-14 -1.147857706e-14)
(0 -1.765188171e-14 -1.103407297e-14)
(0 -1.578948947e-14 -1.048516896e-14)
(0 -1.408123207e-14 -9.866459844e-15)
(0 -1.252657312e-14 -9.207033738e-15)
(0 -1.112063864e-14 -8.530531285e-15)
(0 -9.855672417e-15 -7.855538359e-15)
(0 -8.722174567e-15 -7.196161636e-15)
(0 -7.709756827e-15 -6.5626788e-15)
(0 -6.807760237e-15 -5.962191138e-15)
(0 -6.005682257e-15 -5.399234334e-15)
(0 -5.293456783e-15 -4.876323786e-15)
(0 -4.661624202e-15 -4.394424782e-15)
(0 -4.101421727e-15 -3.953346945e-15)
(0 -3.604817725e-15 -3.552067677e-15)
(0 -3.164508044e-15 -3.188992174e-15)
(0 -2.773887674e-15 -2.862158664e-15)
(0 -2.427007361e-15 -2.56939757e-15)
(0 -2.118521938e-15 -2.308452748e-15)
(0 -1.843635007e-15 -2.077072089e-15)
(0 -1.598043031e-15 -1.873073777e-15)
(0 -1.377880773e-15 -1.694393513e-15)
(0 -1.179669205e-15 -1.539117126e-15)
(0 -1.000266476e-15 -1.405502146e-15)
(0 -8.368221413e-16 -1.291991239e-15)
(0 -6.867345958e-16 -1.197219799e-15)
(0 -5.476115013e-16 -1.120019493e-15)
(0 -4.172328812e-16 -1.059419173e-15)
(0 -2.935164926e-16 -1.01464425e-15)
(0 -1.74485801e-16 -9.851153808e-16)
(0 -5.795023381e-17 -9.70447163e-16)
(0 -0.8554220535 -0.9457696555)
(0 -0.9526933729 -1.1519991)
(0 -0.7813379257 -1.142340301)
(0 -0.5303370883 -0.9673232007)
(0 -0.190472973 -0.595430829)
(0 0.04406822928 -0.2362627047)
(0 0.005514241951 -0.1063141928)
(0 -0.0003850851635 0.0004061529816)
(0 -2.096627351e-14 7.715668644e-18)
(0 -4.15495794e-14 -2.927334393e-15)
(0 -4.051073532e-14 -5.696744841e-15)
(0 -3.895373634e-14 -8.175755904e-15)
(0 -3.69331845e-14 -1.026997586e-14)
(0 -3.457304177e-14 -1.192638265e-14)
(0 -3.199796695e-14 -1.313109732e-14)
(0 -2.932198234e-14 -1.390241933e-14)
(0 -2.664131115e-14 -1.428160854e-14)
(0 -2.403131191e-14 -1.432361078e-14)
(0 -2.154656612e-14 -1.408911367e-14)
(0 -1.922298626e-14 -1.3638536e-14)
(0 -1.708094027e-14 -1.3027995e-14)
(0 -1.512865016e-14 -1.230698161e-14)
(0 -1.3365395e-14 -1.151735113e-14)
(0 -1.178427224e-14 -1.069323267e-14)
(0 -1.037442907e-14 -9.861517847e-15)
(0 -9.122772983e-15 -9.04266723e-15)
(0 -8.01522219e-15 -8.251648991e-15)
(0 -7.037576799e-15 -7.498888364e-15)
(0 -6.176093178e-15 -6.791155504e-15)
(0 -5.417835746e-15 -6.132354209e-15)
(0 -4.750868101e-15 -5.524197179e-15)
(0 -4.164332513e-15 -4.966767936e-15)
(0 -3.648455046e-15 -4.458977698e-15)
(0 -3.194503659e-15 -3.99892949e-15)
(0 -2.79471876e-15 -3.584203096e-15)
(0 -2.442229629e-15 -3.212074192e-15)
(0 -2.130965649e-15 -2.879679888e-15)
(0 -1.855568041e-15 -2.584141386e-15)
(0 -1.611305519e-15 -2.322652906e-15)
(0 -1.393995733e-15 -2.092544434e-15)
(0 -1.199933311e-15 -1.891324516e-15)
(0 -1.025824655e-15 -1.716708079e-15)
(0 -8.687292213e-16 -1.566633254e-15)
(0 -7.260067801e-16 -1.439270326e-15)
(0 -5.952700141e-16 -1.333025262e-15)
(0 -4.743417694e-16 -1.246539677e-15)
(0 -3.612162554e-16 -1.17868871e-15)
(0 -2.540235075e-16 -1.128577888e-15)
(0 -1.509971988e-16 -1.095539825e-15)
(0 -5.015519685e-17 -1.079131346e-15)
(0 -0.3816547028 -0.7754434882)
(0 -0.7470676835 -1.100534944)
(0 -0.7640625738 -1.28275935)
(0 -0.6694574161 -1.256527502)
(0 -0.3826055402 -0.920192204)
(0 -0.05107600671 -0.3805053337)
(0 0.01009033324 -0.09173992873)
(0 -0.0007577629673 -0.001535586342)
(0 -2.259948533e-14 -4.617015363e-18)
(0 -4.472712781e-14 -3.696877499e-15)
(0 -4.342056122e-14 -7.160975915e-15)
(0 -4.147202332e-14 -1.021637778e-14)
(0 -3.897831362e-14 -1.27424544e-14)
(0 -3.611111712e-14 -1.468019474e-14)
(0 -3.303650641e-14 -1.602616761e-14)
(0 -2.98996549e-14 -1.68197033e-14)
(0 -2.681664406e-14 -1.71278702e-14)
(0 -2.387250535e-14 -1.703168324e-14)
(0 -2.112350522e-14 -1.661528134e-14)
(0 -1.860171058e-14 -1.595849146e-14)
(0 -1.632032732e-14 -1.513242767e-14)
(0 -1.42788456e-14 -1.419745005e-14)
(0 -1.246748313e-14 -1.320276668e-14)
(0 -1.087073984e-14 -1.218706023e-14)
(0 -9.470073194e-15 -1.117966778e-14)
(0 -8.245803561e-15 -1.020198657e-14)
(0 -7.178395701e-15 -9.268897154e-15)
(0 -6.24926334e-15 -8.390084645e-15)
(0 -5.441226082e-15 -7.571199421e-15)
(0 -4.738723932e-15 -6.814838131e-15)
(0 -4.12787051e-15 -6.121348818e-15)
(0 -3.596404721e-15 -5.489476302e-15)
(0 -3.133583281e-15 -4.916869217e-15)
(0 -2.730043122e-15 -4.400471192e-15)
(0 -2.377652746e-15 -3.936817405e-15)
(0 -2.069364466e-15 -3.522255389e-15)
(0 -1.799074555e-15 -3.153106226e-15)
(0 -1.561494956e-15 -2.825779513e-15)
(0 -1.352038054e-15 -2.536853011e-15)
(0 -1.166714641e-15 -2.283125693e-15)
(0 -1.002044419e-15 -2.061651109e-15)
(0 -8.549779427e-16 -1.869756447e-15)
(0 -7.228287232e-16 -1.705051469e-15)
(0 -6.032141496e-16 -1.565430554e-15)
(0 -4.940039465e-16 -1.449070256e-15)
(0 -3.932749492e-16 -1.354424267e-15)
(0 -2.992710924e-16 -1.280217137e-15)
(0 -2.103676076e-16 -1.225437816e-15)
(0 -1.250392589e-16 -1.189333739e-15)
(0 -4.154175507e-17 -1.171406027e-15)
(0 0.1126051163 -0.4749929261)
(0 -0.3512869774 -0.8529258841)
(0 -0.5517972911 -1.196101901)
(0 -0.6493985219 -1.381875509)
(0 -0.5056782431 -1.21424356)
(0 -0.1967339258 -0.64796237)
(0 0.01766502778 -0.1133262848)
(0 -0.000991838728 -0.003805550403)
(0 -2.466789452e-14 -2.645876295e-17)
(0 -4.871784922e-14 -4.697096807e-15)
(0 -4.70302356e-14 -9.033709748e-15)
(0 -4.453521482e-14 -1.278601767e-14)
(0 -4.139700146e-14 -1.580299184e-14)
(0 -3.785675499e-14 -1.802556082e-14)
(0 -3.413747551e-14 -1.947353657e-14)
(0 -3.042368492e-14 -2.022228639e-14)
(0 -2.685329109e-14 -2.037847009e-14)
(0 -2.351872305e-14 -2.00599922e-14)
(0 -2.047337434e-14 -1.938188054e-14)
(0 -1.774013258e-14 -1.844777462e-14)
(0 -1.531989885e-14 -1.734582994e-14)
(0 -1.319898918e-14 -1.614767691e-14)
(0 -1.135500518e-14 -1.490925213e-14)
(0 -9.761173344e-15 -1.367261358e-14)
(0 -8.389355411e-15 -1.246813918e-14)
(0 -7.212002353e-15 -1.131674021e-14)
(0 -6.203320266e-15 -1.023188872e-14)
(0 -5.339879066e-15 -9.221369053e-15)
(0 -4.600846664e-15 -8.288730799e-15)
(0 -3.967985144e-15 -7.43445825e-15)
(0 -3.425506271e-15 -6.656889305e-15)
(0 -2.959852911e-15 -5.952922929e-15)
(0 -2.559449936e-15 -5.318553889e-15)
(0 -2.214451847e-15 -4.74926977e-15)
(0 -1.916502957e-15 -4.240340251e-15)
(0 -1.65851845e-15 -3.787023467e-15)
(0 -1.434489774e-15 -3.384709452e-15)
(0 -1.239314826e-15 -3.029016505e-15)
(0 -1.068651699e-15 -2.715852839e-15)
(0 -9.187938318e-16 -2.44145303e-15)
(0 -7.865640647e-16 -2.202396549e-15)
(0 -6.692250148e-16 -1.995613883e-15)
(0 -5.644033287e-16 -1.818384389e-15)
(0 -4.70025567e-16 -1.668328952e-15)
(0 -3.842637267e-16 -1.543399759e-15)
(0 -3.054886502e-16 -1.441868842e-15)
(0 -2.322298043e-16 -1.36231663e-15)
(0 -1.631401095e-16 -1.303621392e-15)
(0 -9.696541001e-17 -1.264950199e-15)
(0 -3.222748442e-17 -1.24575183e-15)
(0 0.3610803576 -0.1727163405)
(0 0.03018117241 -0.5367616643)
(0 -0.2682634004 -0.9299486375)
(0 -0.5278611098 -1.309783966)
(0 -0.5542690241 -1.396317632)
(0 -0.3140070299 -0.9372435237)
(0 0.005117187118 -0.205939789)
(0 -0.0002750449828 -0.003339051232)
(0 -2.729962648e-14 -7.426549108e-17)
(0 -5.375981846e-14 -6.044921203e-15)
(0 -5.150948208e-14 -1.149029769e-14)
(0 -4.824130541e-14 -1.609053247e-14)
(0 -4.421785677e-14 -1.965754076e-14)
(0 -3.978166185e-14 -2.214524273e-14)
(0 -3.523323198e-14 -2.361997509e-14)
(0 -3.080458842e-14 -2.421737934e-14)
(0 -2.665434987e-14 -2.410374587e-14)
(0 -2.28759158e-14 -2.344799176e-14)
(0 -1.951128764e-14 -2.240455135e-14)
(0 -1.656565998e-14 -2.110497912e-14)
(0 -1.402022961e-14 -1.965551902e-14)
(0 -1.184226779e-14 -1.813824496e-14)
(0 -9.9924198e-15 -1.66140098e-14)
(0 -8.429626894e-15 -1.512605018e-14)
(0 -7.114199826e-15 -1.370357246e-14)
(0 -6.009553097e-15 -1.236497492e-14)
(0 -5.083024546e-15 -1.112056976e-14)
(0 -4.306105421e-15 -9.974787512e-15)
(0 -3.654315279e-15 -8.927907346e-15)
(0 -3.106882438e-15 -7.97738211e-15)
(0 -2.646335189e-15 -7.1188319e-15)
(0 -2.258069305e-15 -6.346774914e-15)
(0 -1.929930122e-15 -5.655154892e-15)
(0 -1.651829485e-15 -5.03771397e-15)
(0 -1.415406444e-15 -4.48824987e-15)
(0 -1.213733667e-15 -4.000787805e-15)
(0 -1.041067592e-15 -3.569690329e-15)
(0 -8.926383434e-16 -3.189722753e-15)
(0 -7.644745793e-16 -2.856087256e-15)
(0 -6.532583507e-16 -2.564435453e-15)
(0 -5.562052719e-16 -2.310866596e-15)
(0 -4.709657826e-16 -2.091916609e-15)
(0 -3.955437921e-16 -1.904541759e-15)
(0 -3.282295205e-16 -1.746099671e-15)
(0 -2.675438366e-16 -1.614329607e-15)
(0 -2.121918194e-16 -1.507333383e-15)
(0 -1.610236424e-16 -1.423557861e-15)
(0 -1.130011771e-16 -1.361779671e-15)
(0 -6.716969669e-17 -1.321092606e-15)
(0 -2.234338579e-17 -1.300897966e-15)
(0 0.3584569363 -0.06718128925)
(0 0.2195455186 -0.2882254724)
(0 -0.04473979818 -0.607615961)
(0 -0.3941164027 -1.085805839)
(0 -0.5745383814 -1.441983141)
(0 -0.4239021638 -1.195161644)
(0 -0.05271306113 -0.417443707)
(0 0.001731524719 -0.006594684724)
(0 -3.06465602e-14 -4.461262672e-16)
(0 -6.01757107e-14 -7.932367431e-15)
(0 -5.707584687e-14 -1.479120668e-14)
(0 -5.270245789e-14 -2.042756538e-14)
(0 -4.745171172e-14 -2.459083495e-14)
(0 -4.181918931e-14 -2.7277548e-14)
(0 -3.620961213e-14 -2.864358838e-14)
(0 -3.09074557e-14 -2.892349667e-14)
(0 -2.608390351e-14 -2.837121444e-14)
(0 -2.181952853e-14 -2.722379183e-14)
(0 -1.813036169e-14 -2.568348038e-14)
(0 -1.499110025e-14 -2.391219226e-14)
(0 -1.23531647e-14 -2.203312813e-14)
(0 -1.015747996e-14 -2.013586221e-14)
(0 -8.342810406e-15 -1.828256211e-14)
(0 -6.850736009e-15 -1.651405901e-14)
(0 -5.628280147e-15 -1.485516609e-14)
(0 -4.628999652e-15 -1.331904676e-14)
(0 -3.813132861e-15 -1.191064877e-14)
(0 -3.147216653e-15 -1.062931815e-14)
(0 -2.603441262e-15 -9.470738264e-15)
(0 -2.158909697e-15 -8.428336595e-15)
(0 -1.794899075e-15 -7.494284288e-15)
(0 -1.496175904e-15 -6.66019109e-15)
(0 -1.250388993e-15 -5.917576671e-15)
(0 -1.047546825e-15 -5.258180364e-15)
(0 -8.795767912e-16 -4.674155925e-15)
(0 -7.399589085e-16 -4.158185695e-15)
(0 -6.234247227e-16 -3.70353928e-15)
(0 -5.257117531e-16 -3.304094835e-15)
(0 -4.43364399e-16 -2.954335898e-15)
(0 -3.735731723e-16 -2.649332907e-15)
(0 -3.1404522e-16 -2.38471583e-15)
(0 -2.629001776e-16 -2.156642346e-15)
(0 -2.185863911e-16 -1.961764615e-15)
(0 -1.798134153e-16 -1.797196707e-15)
(0 -1.45497439e-16 -1.660484042e-15)
(0 -1.147169039e-16 -1.549575724e-15)
(0 -8.667609217e-17 -1.462800322e-15)
(0 -6.067485435e-17 -1.398845435e-15)
(0 -3.608370435e-17 -1.356741228e-15)
(0 -1.203284414e-17 -1.335848041e-15)
(0 0.2915658854 -0.03395903396)
(0 0.23043165 -0.14660858)
(0 0.06655650638 -0.3338125284)
(0 -0.2861676612 -0.7848308366)
(0 -0.5900484194 -1.366749726)
(0 -0.5580851283 -1.40490761)
(0 -0.1801229979 -0.7108941073)
(0 0.004397308012 -0.03849899679)
(0 -3.471689583e-14 -6.805801819e-16)
(0 -6.820018163e-14 -1.047491611e-14)
(0 -6.400468002e-14 -1.93126635e-14)
(0 -5.804093368e-14 -2.623645291e-14)
(0 -5.10678394e-14 -3.09998896e-14)
(0 -4.383441529e-14 -3.373013255e-14)
(0 -3.687918065e-14 -3.475323629e-14)
(0 -3.053221447e-14 -3.446188843e-14)
(0 -2.495464503e-14 -3.323399692e-14)
(0 -2.018818174e-14 -3.139268213e-14)
(0 -1.619968807e-14 -2.919357941e-14)
(0 -1.291530773e-14 -2.682734943e-14)
(0 -1.024389957e-14 -2.442907601e-14)
(0 -8.091701776e-15 -2.208962035e-14)
(0 -6.370616592e-15 -1.986639757e-14)
(0 -5.002230867e-15 -1.779251597e-14)
(0 -3.919187576e-15 -1.588402729e-14)
(0 -3.065035778e-15 -1.414542537e-14)
(0 -2.393295939e-15 -1.257367883e-14)
(0 -1.866194917e-15 -1.116110946e-14)
(0 -1.453333724e-15 -9.897397376e-15)
(0 -1.130428462e-15 -8.770944658e-15)
(0 -8.781896841e-16 -7.769778153e-15)
(0 -6.813616877e-16 -6.88212753e-15)
(0 -5.279193956e-16 -6.096778405e-15)
(0 -4.084087387e-16 -5.403272391e-15)
(0 -3.154117746e-16 -4.792004978e-15)
(0 -2.431170215e-16 -4.254256874e-15)
(0 -1.869767325e-16 -3.782183379e-15)
(0 -1.434349614e-16 -3.368778622e-15)
(0 -1.097126506e-16 -3.007825942e-15)
(0 -8.363828318e-17 -2.693841952e-15)
(0 -6.351471155e-17 -2.422019145e-15)
(0 -4.80145672e-17 -2.188170166e-15)
(0 -3.60981528e-17 -1.988675634e-15)
(0 -2.694894791e-17 -1.820436623e-15)
(0 -1.992285405e-17 -1.680832374e-15)
(0 -1.450809967e-17 -1.567683493e-15)
(0 -1.029335351e-17 -1.479220694e-15)
(0 -6.942083032e-18 -1.414059005e-15)
(0 -4.172302268e-18 -1.371177357e-15)
(0 -1.450198428e-18 -1.349903403e-15)
(0 0.2427309835 -0.01275214183)
(0 0.205020123 -0.05440747684)
(0 0.109331761 -0.1286749291)
(0 -0.1773341824 -0.4569873583)
(0 -0.5689183015 -1.179100725)
(0 -0.7088754177 -1.548391035)
(0 -0.3924304199 -1.066801995)
(0 0.005287910482 -0.145102689)
(0 -4.032624159e-14 -7.70883648e-16)
(0 -7.909464811e-14 -1.412599772e-14)
(0 -7.283738367e-14 -2.574522864e-14)
(0 -6.438968399e-14 -3.420382673e-14)
(0 -5.494539135e-14 -3.944114334e-14)
(0 -4.557253601e-14 -4.18895221e-14)
(0 -3.694136801e-14 -4.217740853e-14)
(0 -2.938821633e-14 -4.093709681e-14)
(0 -2.30146972e-14 -3.871053938e-14)
(0 -1.777911102e-14 -3.591968476e-14)
(0 -1.3565029e-14 -3.287108331e-14)
(0 -1.022659686e-14 -2.977477102e-14)
(0 -7.615435612e-15 -2.676637333e-14)
(0 -5.594801522e-15 -2.392726713e-14)
(0 -4.045706029e-15 -2.130097721e-14)
(0 -2.868365727e-15 -1.890563787e-14)
(0 -1.981189552e-15 -1.674303946e-14)
(0 -1.318651193e-15 -1.480497195e-14)
(0 -8.288169487e-16 -1.307754506e-14)
(0 -4.709351945e-16 -1.154404999e-14)
(0 -2.13276459e-16 -1.018679912e-14)
(0 -3.129047391e-17 -8.988265617e-15)
(0 9.39180527e-17 -7.931753483e-15)
(0 1.768238436e-16 -7.00175882e-15)
(0 2.284661466e-16 -6.184132891e-15)
(0 2.57226602e-16 -5.46612152e-15)
(0 2.694387257e-16 -4.836330482e-15)
(0 2.698626904e-16 -4.284649381e-15)
(0 2.620535292e-16 -3.802154928e-15)
(0 2.486456838e-16 -3.381006797e-15)
(0 2.315722707e-16 -3.014344051e-15)
(0 2.12233625e-16 -2.696186846e-15)
(0 1.916265664e-16 -2.421345924e-15)
(0 1.704433334e-16 -2.185341067e-15)
(0 1.491471516e-16 -1.984328872e-15)
(0 1.28029845e-16 -1.8150397e-15)
(0 1.072556906e-16 -1.674723413e-15)
(0 8.689477571e-17 -1.561103387e-15)
(0 6.694839603e-17 -1.47233826e-15)
(0 4.736848238e-17 -1.406990915e-15)
(0 2.807189799e-17 -1.364004222e-15)
(0 9.241110199e-18 -1.342683198e-15)
(0 0.2310204976 0.003172760173)
(0 0.2057170717 0.01022257792)
(0 0.1482924 0.0178481198)
(0 -0.02497084313 -0.1341727737)
(0 -0.4436384639 -0.8699105078)
(0 -0.8137571287 -1.57907617)
(0 -0.6491738701 -1.456300551)
(0 -0.0004557801265 -0.3837411965)
(0 -4.816073162e-14 -2.308193599e-15)
(0 -9.39759244e-14 -2.009667054e-14)
(0 -8.408250903e-14 -3.533562977e-14)
(0 -7.173684838e-14 -4.539002249e-14)
(0 -5.875353477e-14 -5.067035256e-14)
(0 -4.657068049e-14 -5.220938209e-14)
(0 -3.592675536e-14 -5.113022842e-14)
(0 -2.706534532e-14 -4.839914939e-14)
(0 -1.993723298e-14 -4.475195509e-14)
(0 -1.434872566e-14 -4.070491627e-14)
(0 -1.005477433e-14 -3.659666983e-14)
(0 -6.810597757e-15 -3.263454916e-14)
(0 -4.396395674e-15 -2.893456841e-14)
(0 -2.626305652e-15 -2.555222463e-14)
(0 -1.34898733e-15 -2.250468805e-14)
(0 -4.442931207e-16 -1.978606893e-14)
(0 1.814783433e-16 -1.737754924e-14)
(0 6.004586279e-16 -1.52538921e-14)
(0 8.676260179e-16 -1.338748445e-14)
(0 1.02455102e-15 -1.175074564e-14)
(0 1.102450651e-15 -1.031747945e-14)
(0 1.124617173e-15 -9.063559365e-15)
(0 1.108317113e-15 -7.967204684e-15)
(0 1.066258905e-15 -7.009014522e-15)
(0 1.007717905e-15 -6.171866135e-15)
(0 9.393936695e-16 -5.440744015e-15)
(0 8.660603645e-16 -4.802540234e-15)
(0 7.910585326e-16 -4.245849942e-15)
(0 7.16665851e-16 -3.760775378e-15)
(0 6.443759159e-16 -3.338745301e-15)
(0 5.751073002e-16 -2.972352784e-15)
(0 5.09359844e-16 -2.655212031e-15)
(0 4.473310682e-16 -2.381833571e-15)
(0 3.890024851e-16 -2.147516553e-15)
(0 3.342032142e-16 -1.948256604e-15)
(0 2.826565107e-16 -1.780667638e-15)
(0 2.340134589e-16 -1.641916129e-15)
(0 1.878770528e-16 -1.529666472e-15)
(0 1.438191184e-16 -1.442036258e-15)
(0 1.013919551e-16 -1.377560471e-15)
(0 6.013541481e-17 -1.335163778e-15)
(0 1.98708262e-17 -1.314140293e-15)
(0 0.2515528838 0.01447104443)
(0 0.2377512877 0.04958620553)
(0 0.2054314211 0.09893104869)
(0 0.1587329328 0.1276003467)
(0 -0.1621598006 -0.4342235366)
(0 -0.7740370656 -1.409899371)
(0 -0.8693692829 -1.793429832)
(0 -0.01616885429 -0.803294714)
(0 -5.900197411e-14 -5.653109222e-15)
(0 -1.140054199e-13 -3.020997938e-14)
(0 -9.813073562e-14 -5.010650108e-14)
(0 -7.972440679e-14 -6.134717308e-14)
(0 -6.176475095e-14 -6.56404034e-14)
(0 -4.603241187e-14 -6.5148204e-14)
(0 -3.313113532e-14 -6.173612241e-14)
(0 -2.300994299e-14 -5.677841299e-14)
(0 -1.532046408e-14 -5.11941025e-14)
(0 -9.62382576e-15 -4.555201147e-14)
(0 -5.494661889e-15 -4.017658701e-14)
(0 -2.564495442e-15 -3.523248996e-14)
(0 -5.331110816e-16 -3.078531821e-14)
(0 8.350788376e-16 -2.684249032e-14)
(0 1.720449676e-15 -2.337954619e-14)
(0 2.258773085e-15 -2.035643275e-14)
(0 2.550987272e-15 -1.772720846e-14)
(0 2.671413593e-15 -1.544556272e-14)
(0 2.674329513e-15 -1.34677482e-14)
(0 2.599069808e-15 -1.175395843e-14)
(0 2.473909816e-15 -1.026880205e-14)
(0 2.318984291e-15 -8.981275915e-15)
(0 2.148462896e-15 -7.86448008e-15)
(0 1.972162392e-15 -6.895218015e-15)
(0 1.796736653e-15 -6.053563681e-15)
(0 1.626552503e-15 -5.322439759e-15)
(0 1.464332798e-15 -4.687229066e-15)
(0 1.311627546e-15 -4.135428248e-15)
(0 1.169158171e-15 -3.656345624e-15)
(0 1.037068278e-15 -3.240841241e-15)
(0 9.151055401e-16 -2.881105374e-15)
(0 8.027528381e-16 -2.570471084e-15)
(0 6.993220445e-16 -2.303256395e-15)
(0 6.040203001e-16 -2.074631981e-15)
(0 5.159960665e-16 -1.880510691e-15)
(0 4.3437032e-16 -1.717455731e-15)
(0 3.582568575e-16 -1.582604826e-15)
(0 2.867746468e-16 -1.473608123e-15)