/*--------------------------------*- C++ -*----------------------------------*\
  =========                 |
  \\      /  F ield         | OpenFOAM: The Open Source CFD Toolbox
   \\    /   O peration     | Website:  https://openfoam.org
    \\  /    A nd           | Version:  6
     \\/     M anipulation  |
\*---------------------------------------------------------------------------*/
FoamFile
{
    version     2.0;
    format      ascii;
    class       volScalarField;
    location    "0.05";
    object      ViscousDissipation;
}
// * * * * * * * * * * * * * * * * * * * * * * * * * * * * * * * * * * * * * //

dimensions      [1 -1 -3 0 0 0 0];

internalField   nonuniform List<scalar> 
2500
(
0.0955038363
0.2039812009
0.1834075086
0.174903835
0.1470024684
0.1313881574
0.05970640067
0.001352340855
0.0006729886074
6.788642543e-25
7.050883031e-27
1.394730492e-26
2.258933533e-26
3.168229986e-26
4.023524506e-26
4.744649288e-26
5.278302246e-26
5.599935639e-26
5.710768346e-26
5.631749955e-26
5.396369797e-26
5.043820779e-26
4.613456085e-26
4.140923869e-26
3.655947874e-26
3.181474034e-26
2.733803939e-26
2.32334111e-26
1.955638966e-26
1.632523436e-26
1.353144843e-26
1.114880716e-26
9.140599494e-27
7.465102283e-27
6.079483232e-27
4.942405629e-27
4.015621406e-27
3.264815528e-27
2.659924237e-27
2.175104463e-27
1.788488923e-27
1.481824603e-27
1.240062586e-27
1.050944352e-27
9.046130807e-28
7.932673517e-28
7.108691825e-28
6.529227839e-28
6.163788292e-28
6.378609115e-28
0.1621961844
0.2694406702
0.213443476
0.1912309081
0.1501262891
0.1290085352
0.06929752097
0.009498264355
0.001826549574
6.925590717e-25
1.044476945e-26
1.731022557e-26
2.588975736e-26
3.486859472e-26
4.325161321e-26
5.024037731e-26
5.531219343e-26
5.823662848e-26
5.904256691e-26
5.795510362e-26
5.532175799e-26
5.154323789e-26
4.701797857e-26
4.210402443e-26
3.709764276e-26
3.222564276e-26
2.764746496e-26
2.346323296e-26
1.972464358e-26
1.644644494e-26
1.361708263e-26
1.120776717e-26
9.179698662e-27
7.489492896e-27
6.093022379e-27
4.947956928e-27
4.015296868e-27
3.260165114e-27
2.652081723e-27
2.164897966e-27
1.776523601e-27
1.468543836e-27
1.225792723e-27
1.035926873e-27
8.890265473e-28
7.772389204e-28
6.944679217e-28
6.36097276e-28
5.993620695e-28
9.27162117e-28
0.3414554919
0.4179529394
0.2541855752
0.2161915211
0.1499994533
0.1222885841
0.08731696679
0.02422505251
0.003148462692
7.20698369e-25
1.774154409e-26
2.448919454e-26
3.28958843e-26
4.159753654e-26
4.958937978e-26
5.608135362e-26
6.057404608e-26
6.286939578e-26
6.303119488e-26
6.131641221e-26
5.809777625e-26
5.379299985e-26
4.880948387e-26
4.350745358e-26
3.818031893e-26
3.304877659e-26
2.826444271e-26
2.391908649e-26
2.005632796e-26
1.668359865e-26
1.378301985e-26
1.132052771e-26
9.253046661e-27
7.533805452e-27
6.116044131e-27
4.955418923e-27
4.011410525e-27
3.248008016e-27
2.633893608e-27
2.142304518e-27
1.750703563e-27
1.440352499e-27
1.195852345e-27
1.004692291e-27
8.568323596e-28
7.443333309e-28
6.610395113e-28
6.02314123e-28
5.653602051e-28
1.488571065e-27
0.9224569159
0.8194586217
0.3078045938
0.2426840353
0.1300994503
0.1035288509
0.110389476
0.04224567194
0.003794754331
7.655648457e-25
2.99453568e-26
3.644418716e-26
4.448545235e-26
5.264429273e-26
5.991184156e-26
6.551981143e-26
6.901173312e-26
7.024417975e-26
6.933700728e-26
6.659639271e-26
6.243241137e-26
5.72865583e-26
5.157729334e-26
4.566553808e-26
3.983798056e-26
3.430403295e-26
2.920184869e-26
2.46093247e-26
2.055696593e-26
1.704050864e-26
1.403208414e-26
1.148937468e-26
9.362664395e-27
7.599954882e-27
6.150445261e-27
4.966714932e-27
4.005931762e-27
3.230365182e-27
2.607430644e-27
2.109439601e-27
1.713182869e-27
1.399437229e-27
1.152455466e-27
9.594779358e-28
8.102879669e-28
6.968226275e-28
6.128436375e-28
5.536687828e-28
5.164542123e-28
2.288470929e-27
2.18080095
2.085148206
0.6793898789
0.3584904793
0.1242205321
0.07517279334
0.1242461459
0.05785506481
0.002733474749
8.308317833e-25
4.888127833e-26
5.486294684e-26
6.217737505e-26
6.93337927e-26
7.533910769e-26
7.947393502e-26
8.135563001e-26
8.092537117e-26
7.838422411e-26
7.41056383e-26
6.854749389e-26
6.217870321e-26
5.5427107e-26
4.864905221e-26
4.211721959e-26
3.602169279e-26
3.047924378e-26
2.554664829e-26
2.123499237e-26
1.752304292e-26
1.436866032e-26
1.171788189e-26
9.511718542e-27
7.690934328e-27
6.199173656e-27
4.984812725e-27
4.001876888e-27
3.210310033e-27
2.575821659e-27
2.069481124e-27
1.667180682e-27
1.349050696e-27
1.09888125e-27
9.035831536e-28
7.527064623e-28
6.38024777e-28
5.531874662e-28
4.934374721e-28
4.558474453e-28
3.279577934e-27
2.275431841
3.813487581
2.233919925
1.214557583
0.2362278161
0.08708994363
0.1213781885
0.06185105405
0.0005635132177
9.22429118e-25
7.760726261e-26
8.252343059e-26
8.842973365e-26
9.377405507e-26
9.762255999e-26
9.935403388e-26
9.870748675e-26
9.574895785e-26
9.078973548e-26
8.428736824e-26
7.675338215e-26
6.868139182e-26
6.050015076e-26
5.254978737e-26
4.507619637e-26
3.823763973e-26
3.211815786e-26
2.674361414e-26
2.209755186e-26
1.813522993e-26
1.479510184e-26
1.200760529e-26
9.701482602e-27
7.808022457e-27
6.263661948e-27
5.011365533e-27
4.00113958e-27
3.18997131e-27
2.541412591e-27
2.024969139e-27
1.615406813e-27
1.292048789e-27
1.038109444e-27
8.400908677e-28
6.872544578e-28
5.71171369e-28
4.853504381e-28
4.249383918e-28
3.869047269e-28
4.402700027e-27
0.531365018
2.623506351
3.540380231
3.285066047
1.25606571
0.1640232391
0.1340179703
0.04851204752
0.0001716258983
1.049265813e-24
1.211324407e-25
1.239168068e-25
1.271489004e-25
1.292505738e-25
1.294358824e-25
1.272678054e-25
1.226792066e-25
1.159127525e-25
1.074197467e-25
9.775199906e-26
8.746972917e-26
7.707630942e-26
6.698111491e-26
5.748603777e-26
4.878890803e-26
4.099706462e-26
3.414554193e-26
2.821595868e-26
2.315372239e-26
1.888237044e-26
1.531470582e-26
1.236089687e-26
9.933971413e-27
7.953228126e-27
6.346078847e-27
5.048772282e-27
4.006366627e-27
3.172234048e-27
2.507304502e-27
1.979194038e-27
1.561314006e-27
1.232021314e-27
9.73844019e-28
7.72798766e-28
6.178051593e-28
5.001951092e-28
4.133114416e-28
3.521874618e-28
3.136733981e-28
5.590297749e-27
0.7211231538
0.1433806612
1.940978915
3.852723887
3.664535489
0.7338392466
0.1715415497
0.02926273177
0.0005724183118
1.225101296e-24
1.876855662e-25
1.863307378e-25
1.845530316e-25
1.808749522e-25
1.748368565e-25
1.663330163e-25
1.55594537e-25
1.431002743e-25
1.294619767e-25
1.153167216e-25
1.012454965e-25
8.772377952e-26
7.510115954e-26
6.360272961e-26
5.334410468e-26
4.435301759e-26
3.659234591e-26
2.998134854e-26
2.44134681e-26
1.977017161e-26
1.593099192e-26
1.278029199e-26
1.021140653e-26
8.128810599e-27
6.44888746e-27
5.099762431e-27
4.02056146e-27
3.16035659e-27
2.476980675e-27
1.935831482e-27
1.508739223e-27
1.172938631e-27
9.101644279e-28
7.058745386e-28
5.485967156e-28
4.293895559e-28
3.414069028e-28
2.795536136e-28
2.405457436e-28
6.770392132e-27
2.862436743
1.194442576
0.06726674176
1.81412275
4.751458809
2.532641361
0.4030395329
0.02219324323
0.004977139918
1.471322002e-24
2.912238818e-25
2.818264503e-25
2.706719462e-25
2.566652457e-25
2.400049374e-25
2.211558428e-25
2.007841932e-25
1.796538165e-25
1.585216689e-25
1.380553228e-25
1.187825381e-25
1.010723239e-25
8.51405384e-26
7.107099257e-26
5.884379524e-26
4.836477274e-26
3.949210737e-26
3.205828666e-26
2.588683911e-26
2.08041779e-26
1.664729839e-26
1.326821465e-26
1.053598859e-26
8.337089181e-27
6.57467231e-27
5.167227747e-27
4.046913112e-27
3.157792593e-27
2.454119672e-27
1.898745907e-27
1.461697799e-27
1.118937114e-27
8.513032664e-28
6.436266433e-28
4.83996848e-28
3.631681673e-28
2.7408492e-28
2.115102181e-28
1.72012465e-28
7.870784406e-27
3.858853937
3.890782006
1.072627907
0.07049713237
3.055814373
4.799364217
1.307950709
0.03508691972
0.02300972617
1.823447881e-24
4.559073563e-25
4.307723602e-25
4.019647006e-25
3.693565148e-25
3.34419427e-25
2.985565192e-25
2.630098118e-25
2.28808866e-25
1.967432343e-25
1.67356261e-25
1.409599107e-25
1.176663031e-25
9.742883386e-26
8.008568698e-26
6.540024646e-26
5.309517216e-26
4.287888638e-26
3.446461539e-26
2.758292921e-26
2.198905794e-26
1.746629127e-26
1.382662834e-26
1.090963284e-26
8.580225414e-27
6.725943879e-27
5.254034322e-27
4.088607118e-27
3.16799616e-27
2.442392571e-27
1.871779198e-27
1.424163737e-27
1.074091693e-27
8.014118553e-28
5.902637909e-28
4.282570615e-28
3.058140525e-28
2.156515486e-28
1.523793732e-28
1.124065917e-28
8.823386046e-27
1.994652843
3.785567795
3.540783178
0.9683524524
0.7508130693
5.540976279
2.893843553
0.1120840414
0.01581059163
2.341543845e-24
7.24193619e-25
6.683667397e-25
6.060061285e-25
5.394755727e-25
4.727445447e-25
4.086599859e-25
3.49060317e-25
2.950004733e-25
2.469556868e-25
2.049839272e-25
1.688541409e-25
1.381481246e-25
1.123405104e-25
9.085949949e-26
7.313067638e-26
5.860650219e-26
4.678429659e-26
3.721547181e-26
2.950850019e-26
2.332768291e-26
1.838933627e-26
1.445658965e-26
1.13336303e-26
8.859944633e-27
6.904891469e-27
5.362789496e-27
4.148596675e-27
3.194192025e-27
2.445229634e-27
1.858512856e-27
1.399827228e-27
1.042169021e-27
7.643095431e-28
5.496409009e-28
3.852557845e-28
2.612208378e-28
1.700100013e-28
1.060701254e-28
6.564128375e-29
9.568418293e-27
0.6672760201
1.930151579
4.312781047
3.745108817
0.06055101083
4.095190588
4.827446415
0.4784452927
0.06792965592
3.089815165e-24
1.171277981e-24
1.057590072e-24
9.302118007e-25
8.006368046e-25
6.778373209e-25
5.665076532e-25
4.685639275e-25
3.842422999e-25
3.12830749e-25
2.53131691e-25
2.037470013e-25
1.632496144e-25
1.302826362e-25
1.036118952e-25
8.214876649e-26
6.495447872e-26
5.123343927e-26
4.032061178e-26
3.16662385e-26
2.48199826e-26
1.941572719e-26
1.515770129e-26
1.180823281e-26
9.177196232e-27
7.11308508e-27
5.495565885e-27
4.22933792e-27
3.239116168e-27
2.465563229e-27
1.8620118e-27
1.391838736e-27
1.026371647e-27
7.432279452e-28
5.250034607e-28
3.582429034e-28
2.32637435e-28
1.404057111e-28
7.582387396e-29
3.49555301e-29
1.005822941e-26
0.263256187
0.8008877706
3.156485673
5.952365297
1.701772749
1.855006348
6.49662854
1.576301204
2.07628594
4.368390701e-24
1.964482525e-24
1.7197371e-24
1.458766858e-24
1.208692539e-24
9.854696064e-25
7.943609075e-25
6.350333171e-25
5.045523873e-25
3.990241399e-25
3.14444797e-25
2.471070447e-25
1.937647851e-25
1.516707236e-25
1.185509636e-25
9.255211299e-26
7.217998606e-26
5.623961995e-26
4.378107809e-26
3.405265307e-26
2.646159596e-26
2.054178735e-26
1.592747905e-26
1.233217431e-26
9.531764313e-27
7.351137892e-27
5.653594506e-27
4.332501898e-27
3.304740155e-27
2.505561011e-27
1.884564392e-27
1.402554706e-27
1.029088632e-27
7.405658748e-28
5.187462405e-28
3.496017583e-28
2.224328185e-28
1.291933869e-28
6.398318098e-29
2.268414536e-29
1.02604827e-26
0.05806367877
0.2717951178
1.654330316
6.133823977
5.016235622
0.3659344731
7.70481803
4.295850057
28.79871168
6.649812209e-24
3.489889042e-24
2.897803337e-24
2.344065465e-24
1.856957095e-24
1.451404787e-24
1.124784442e-24
8.670765717e-25
6.663423894e-25
5.112386435e-25
3.919757231e-25
3.005246044e-25
2.304939286e-25
1.768880933e-25
1.358462621e-25
1.044049499e-25
8.029841083e-26
6.179787208e-26
4.758528513e-26
3.665568595e-26
2.824237453e-26
2.175988879e-26
1.676066727e-26
1.290215683e-26
9.921853137e-27
7.618351629e-27
5.836948122e-27
4.458683755e-27
3.391999363e-27
2.566369184e-27
1.927438258e-27
1.433304191e-27
1.051671606e-27
7.576736415e-28
5.322047309e-28
3.606466619e-28
2.31898596e-28
1.376436229e-28
7.180141441e-29
3.006942483e-29
1.016048922e-26
0.008145542372
0.09680543893
0.548774161
4.332950633
8.812738259
1.408129961
7.42536373
9.666015756
200.8745443
1.052280711e-23
6.459182882e-24
5.043564181e-24
3.854463883e-24
2.898805929e-24
2.161043737e-24
1.604295513e-24
1.189514505e-24
8.825835974e-25
6.560996609e-25
4.890155971e-25
3.65573902e-25
2.741478688e-25
2.062246103e-25
1.555914547e-25
1.177160387e-25
8.928679208e-26
6.787754844e-26
5.170473488e-26
3.945219354e-26
3.014485025e-26
2.305746896e-26
1.76485618e-26
1.35123472e-26
1.034368572e-26
7.912378234e-27
6.04424503e-27
4.607137086e-27
3.500551239e-27
2.647890565e-27
1.990675309e-27
1.484198633e-27
1.094257461e-27
7.946869649e-28
5.654987022e-28
3.914746064e-28
2.611074236e-28
1.658066267e-28
9.931043052e-29
5.713143424e-29
9.762496902e-27
0.0412910636
0.0974079503
0.2025375957
1.489420443
10.78587292
7.35549538
4.365428134
17.16989988
881.1408323
1.808508206e-23
1.247532678e-23
9.044617386e-24
6.466249251e-24
4.583247308e-24
3.241835289e-24
2.296851081e-24
1.63380785e-24
1.168406564e-24
8.406757244e-25
6.087290028e-25
4.435742803e-25
3.252033388e-25
2.397929363e-25
1.777571861e-25
1.32412637e-25
9.906959545e-26
7.441456834e-26
5.608976044e-26
4.240555822e-26
3.214283926e-26
2.441616175e-26
1.857842457e-26
1.415394857e-26
1.079116708e-26
8.228941302e-27
6.272411117e-27
4.775567082e-27
3.628593955e-27
2.748625046e-27
2.072951226e-27
1.554008053e-27
1.155659137e-27
8.504304185e-28
6.174464792e-28
4.408886347e-28
3.088438202e-28
2.124488998e-28
1.452615993e-28
1.026118882e-28
9.089803325e-27
0.07770433118
0.110244607
0.23203768
0.07409892681
6.660240914
17.55327031
1.659992249
22.87545814
2706.045473
3.502771905e-23
2.544883785e-23
1.670447161e-23
1.102428197e-23
7.304379175e-24
4.87542436e-24
3.284844231e-24
2.236560514e-24
1.539586595e-24
1.071430784e-24
7.535204879e-25
5.352320918e-25
3.837083584e-25
2.77425427e-25
2.021374292e-25
1.483129383e-25
1.09504679e-25
8.13042951e-26
6.06658912e-26
4.5463795e-26
3.420041137e-26
2.581119431e-26
1.953309525e-26
1.481492488e-26
1.125567333e-26
8.561667134e-27
6.516542147e-27
4.960018529e-27
3.772776807e-27
2.865599963e-27
2.171523701e-27
1.640125161e-27
1.233343695e-27
9.22407622e-28
6.855654793e-28
5.064070394e-28
3.726204317e-28
2.750750459e-28
2.071517077e-28
1.640027323e-28
8.183629592e-27
0.08634104493
0.1038946376
0.1677394845
0.2881787358
1.117928055
19.14223843
7.747006972
21.11842079
6100.129509
7.363260338e-23
5.392350606e-23
3.146002174e-23
1.894143299e-23
1.164183267e-23
7.297246091e-24
4.662243563e-24
3.034074752e-24
2.00924867e-24
1.352427463e-24
9.241043118e-25
6.401732962e-25
4.49052088e-25
3.185626379e-25
2.282963087e-25
1.651011384e-25
1.203718333e-25
8.839639318e-26
6.533160869e-26
4.855860072e-26
3.627149607e-26
2.721122235e-26
2.049091693e-26
1.547996236e-26
1.172603023e-26
8.90207567e-27
6.769906982e-27
5.154892206e-27
3.928230329e-27
2.994413835e-27
2.282289147e-27
1.738634041e-27
1.323511744e-27
1.00689008e-27
7.661691288e-28
5.843670507e-28
4.48787235e-28
3.500413e-28
2.81339677e-28
2.376649359e-28
7.10077542e-27
0.07587377999
0.08891672408
0.08967461867
0.2416264405
0.0686932181
9.49789567
22.31553611
11.46855337
10454.62114
1.465204983e-22
1.154159738e-22
5.933168969e-23
3.231494497e-23
1.832588189e-23
1.075843321e-23
6.512036388e-24
4.05092953e-24
2.582429635e-24
1.682809885e-24
1.118357174e-24
7.56427006e-25
5.197357445e-25
3.621538757e-25
2.555263814e-25
1.823109245e-25
1.313669412e-25
9.549327571e-26
6.995835933e-26
5.160582637e-26
3.830040352e-26
2.857877463e-26
2.142608734e-26
1.613074526e-26
1.218873735e-26
9.239773434e-27
7.024124136e-27
5.353114851e-27
4.088735668e-27
3.129408535e-27
2.399959359e-27
1.844491906e-27
1.421284287e-27
1.099108765e-27
8.545626407e-28
6.701241944e-28
5.327338422e-28
4.32760151e-28
3.632528979e-28
3.1903593e-28
5.910164173e-27
0.06031713625
0.06867695204
0.06575338155
0.09370438591
0.3060651134
2.07284875
31.34477483
1.978979229
13968.82135
2.722786539e-22
2.395818725e-22
1.0851144e-22
5.343026349e-23
2.798772965e-23
1.541994087e-23
8.863470604e-24
5.282843674e-24
3.24917583e-24
2.054011706e-24
1.330193206e-24
8.799802438e-25
5.932035628e-25
4.065984697e-25
2.828322866e-25
1.993241529e-25
1.421050668e-25
1.023537796e-25
7.439365087e-26
5.450780338e-26
4.022349542e-26
2.987144197e-26
2.230951821e-26
1.674659912e-26
1.262847351e-26
9.562872851e-27
7.269528088e-27
5.546473248e-27
4.247039316e-27
3.263972507e-27
2.518357925e-27
1.95182152e-27
1.520992797e-27
1.193542807e-27
9.453308774e-28
7.583396431e-28
6.191765264e-28
5.179871541e-28
4.476739019e-28
4.029161677e-28
4.688474638e-27
0.04539925111
0.05011489646
0.06350759101
0.05453836367
0.2492416178
0.3161503535
26.27430447
1.106407402
14536.57645
7.059090936e-22
4.479562795e-22
1.833304429e-22
8.302450653e-23
4.064987485e-23
2.119516586e-23
1.164055781e-23
6.679014129e-24
3.97833195e-24
2.447582208e-24
1.548839128e-24
1.004567701e-24
6.658060702e-25
4.497599975e-25
3.089542205e-25
2.153912073e-25
1.521353922e-25
1.087033819e-25
7.846782693e-26
5.715779559e-26
4.197213194e-26
3.104387038e-26
2.311023085e-26
1.730551349e-26
1.30288865e-26
9.858635308e-27
7.495718913e-27
5.726103284e-27
4.395301954e-27
3.390962157e-27
2.630822301e-27
2.054299234e-27
1.616556759e-27
1.284288994e-27
1.032701584e-27
8.433385473e-28
7.025127361e-28
6.001725443e-28
5.290898778e-28
4.838172504e-28
3.515135575e-27
0.03107739495
0.03483080488
0.0549191579
0.05022675727
0.1191201448
0.7561668134
17.4326715
7.716175399
11810.63095
1.861844801e-21
7.130666236e-22
2.76594476e-22
1.186859614e-22
5.533851924e-23
2.764267133e-23
1.462989289e-23
8.132384556e-24
4.714860152e-24
2.834679337e-24
1.758922964e-24
1.121865058e-24
7.329651835e-25
4.890820015e-25
3.324427499e-25
2.296775385e-25
1.609696622e-25
1.142515054e-25
8.200465031e-26
5.944656531e-26
4.347684341e-26
3.205050216e-26
2.37972367e-26
1.778549918e-26
1.337362724e-26
1.011430189e-26
7.692261761e-27
5.883102276e-27
4.525651044e-27
3.503212121e-27
2.730683081e-27
2.145610899e-27
1.701921545e-27
1.36548549e-27
1.110957902e-27
9.195136629e-28
7.772177635e-28
6.738525932e-28
6.020801814e-28
5.563469093e-28
2.467021483e-27
0.01768335958
0.0227556421
0.03874520993
0.06966269562
0.0469982764
1.561738502
10.82273486
16.78981366
7558.223929
2.990808344e-21
9.86757961e-22
3.737738781e-22
1.554773643e-22
7.016241762e-23
3.397569404e-23
1.748480034e-23
9.483525147e-24
5.382877258e-24
3.178104405e-24
1.941721874e-24
1.222217657e-24
7.895886377e-25
5.218207329e-25
3.517890467e-25
2.413367427e-25
1.681235214e-25
1.187152068e-25
8.483513056e-26
6.127064706e-26
4.467244303e-26
3.284886563e-26
2.434175876e-26
1.816617141e-26
1.364754266e-26
1.031804106e-26
7.849475618e-27
6.009211167e-27
4.630788988e-27
3.594090154e-27
2.811779333e-27
2.21993701e-27
1.771520038e-27
1.431754866e-27
1.174866596e-27
9.817418391e-28
8.382520231e-28
7.340498606e-28
6.617114999e-28
6.156008388e-28
1.613226099e-27
0.007064356162
0.01403200016
0.0223524273
0.09094315289
0.05418322453
1.948262396
5.83427176
25.54938363
3167.466441
2.774989447e-21
1.225256011e-21
4.573700218e-22
1.867777246e-22
8.254339806e-23
3.915225767e-23
1.976758444e-23
1.054152472e-23
5.896075055e-24
3.437499999e-24
2.077759907e-24
1.295946052e-24
8.307320339e-25
5.453848454e-25
3.656016466e-25
2.496040397e-25
1.731668789e-25
1.218469056e-25
8.681318677e-26
6.254147366e-26
4.550354825e-26
3.340306947e-26
2.471956066e-26
1.843039209e-26
1.38379015e-26
1.045991364e-26
7.959229123e-27
6.097496465e-27
4.704595471e-27
3.65804185e-27
2.868960257e-27
2.272421345e-27
1.820715447e-27
1.478626471e-27
1.220084158e-27
1.025777194e-27
8.814440994e-28
7.766485215e-28
7.039075938e-28
6.575287876e-28
1.010298513e-27
0.001234101597
0.009355636211
0.01315211484
0.09746517285
0.1187582643
1.912525722
4.660450552
30.12447478
392.0173444
1.833434011e-21
1.368110421e-21
5.067325033e-22
2.05094627e-22
8.969162481e-23
4.209668419e-23
2.104701774e-23
1.112641439e-23
6.176303579e-24
3.577612114e-24
2.1505519e-24
1.335078758e-24
8.524187908e-25
5.57732324e-25
3.728031025e-25
2.538960524e-25
1.757758185e-25
1.234621346e-25
8.783094335e-26
6.319411002e-26
4.592977887e-26
3.368704945e-26
2.491308807e-26
1.856576668e-26
1.393550302e-26
1.053273937e-26
8.0156502e-27
6.142954074e-27
4.742657184e-27
3.691066542e-27
2.898520776e-27
2.299575598e-27
1.846181707e-27
1.502897627e-27
1.24350272e-27
1.048584909e-27
9.038150506e-28
7.987114371e-28
7.257611404e-28
6.792429914e-28
6.983026137e-28
0.001234113828
0.009355645364
0.01315213116
0.09746516909
0.1187581781
1.912526085
4.660449104
30.12447334
392.0174473
1.833434042e-21
1.368110242e-21
5.067324321e-22
2.050946087e-22
8.969162514e-23
4.209668917e-23
2.104702276e-23
1.112641829e-23
6.176306343e-24
3.577614001e-24
2.150553172e-24
1.335079616e-24
8.524193736e-25
5.577327256e-25
3.728033837e-25
2.538962529e-25
1.757759638e-25
1.234622416e-25
8.78310233e-26
6.319417045e-26
4.592982498e-26
3.368708486e-26
2.491311537e-26
1.856578775e-26
1.393551923e-26
1.053275178e-26
8.015659591e-27
6.142961062e-27
4.742662247e-27
3.691070059e-27
2.898523049e-27
2.299576868e-27
1.846182172e-27
1.502897447e-27
1.243502027e-27
1.048583813e-27
9.03813644e-28
7.987097984e-28
7.25759338e-28
6.792411427e-28
6.980044501e-28
0.007064387553
0.01403202318
0.02235247284
0.09094309198
0.05418314766
1.948262164
5.834267308
25.54937211
3167.466312
2.774989076e-21
1.225255374e-21
4.57369791e-22
1.867776651e-22
8.254339694e-23
3.915227144e-23
1.976759877e-23
1.054153599e-23
5.896083087e-24
3.4375055e-24
2.077763622e-24
1.29594856e-24
8.307337416e-25
5.45386024e-25
3.656024734e-25
2.496046298e-25
1.731673074e-25
1.218472217e-25
8.681342333e-26
6.254165277e-26
4.550368512e-26
3.340317475e-26
2.471964195e-26
1.843045491e-26
1.383794993e-26
1.045995075e-26
7.959257264e-27
6.097517448e-27
4.704610715e-27
3.658052478e-27
2.868967166e-27
2.272425257e-27
1.820716947e-27
1.478626037e-27
1.220082186e-27
1.025774011e-27
8.814399829e-28
7.766437066e-28
7.039022858e-28
6.575233366e-28
1.00940801e-27
0.0176833928
0.02275566933
0.0387452451
0.06966263517
0.04699845227
1.561737199
10.82273042
16.78979179
7558.22125
2.990805952e-21
9.867568167e-22
3.737734756e-22
1.554772576e-22
7.016241083e-23
3.397571374e-23
1.748482217e-23
9.483542644e-24
5.38288985e-24
3.178113075e-24
1.94172775e-24
1.222221636e-24
7.895913542e-25
5.218226129e-25
3.517903695e-25
2.413376899e-25
1.681242115e-25
1.187157177e-25
8.483551411e-26
6.127093841e-26
4.467266637e-26
3.284903795e-26
2.43418922e-26
1.816627483e-26
1.364762263e-26
1.031810254e-26
7.849522401e-27
6.009246194e-27
4.630814568e-27
3.594108119e-27
2.81179115e-27
2.21994386e-27
1.771522883e-27
1.431754496e-27
1.174863661e-27
9.817368817e-28
8.38245502e-28
7.340421688e-28
6.6170298e-28
6.15592068e-28
1.611755183e-27
0.03107740365
0.03483081097
0.05491912861
0.05022676866
0.1191201322
0.7561650478
17.43267068
7.716156671
11810.62268
1.861840122e-21
7.13065013e-22
2.765939224e-22
1.186858102e-22
5.533850429e-23
2.764269407e-23
1.462992003e-23
8.132406798e-24
4.714876327e-24
2.834690541e-24
1.758930588e-24
1.121870239e-24
7.329687332e-25
4.890844678e-25
3.324444928e-25
2.296787924e-25
1.609705802e-25
1.142521884e-25
8.200516568e-26
5.944695869e-26
4.347714639e-26
3.205073698e-26
2.379741934e-26
1.778564135e-26
1.337373767e-26
1.011438718e-26
7.692326996e-27
5.883151411e-27
4.525687199e-27
3.503237778e-27
2.730700235e-27
2.145621164e-27
1.701926237e-27
1.365485693e-27
1.110954514e-27
9.195074358e-28
7.772093347e-28
6.738425115e-28
6.020689281e-28
5.563352785e-28
2.464989898e-27
0.0453992069
0.05011484025
0.06350750495
0.05453834522
0.2492406663
0.316148752
26.27427111
1.106409208
14536.56099
7.059049466e-22
4.479543917e-22
1.833298122e-22
8.302432901e-23
4.064985371e-23
2.119519013e-23
1.164058845e-23
6.679039679e-24
3.978350678e-24
2.447595235e-24
1.54884802e-24
1.004573762e-24
6.658102395e-25
4.497629081e-25
3.089562886e-25
2.153927043e-25
1.521364955e-25
1.087042082e-25
7.846845453e-26
5.715827773e-26
4.197250558e-26
3.104416169e-26
2.311045875e-26
1.730569191e-26
1.302902588e-26
9.858743614e-27
7.495802302e-27
5.726166578e-27
4.395348974e-27
3.39099596e-27
2.630845352e-27
2.05431354e-27
1.616563962e-27
1.284290452e-27
1.032698429e-27
8.433317304e-28
7.025030692e-28
6.001607306e-28
5.290765378e-28
4.83803381e-28
3.512570688e-27
0.06031700548
0.06867679511
0.06575324373
0.09370415525
0.3060641384
2.072834461
31.34473714
1.978954437
13968.81665
2.722768125e-22
2.395801618e-22
1.085108562e-22
5.343008824e-23
2.798770799e-23
1.541996689e-23
8.863503755e-24
5.282871425e-24
3.249196187e-24
2.054025867e-24
1.330202878e-24
8.799868499e-25
5.932081231e-25
4.066016698e-25
2.828345755e-25
1.993258223e-25
1.421063071e-25
1.023547162e-25
7.439436811e-26
5.450835879e-26
4.022392914e-26
2.987178261e-26
2.230978659e-26
1.67468107e-26
1.262863996e-26
9.563003138e-27
7.269629203e-27
5.546550702e-27
4.247097504e-27
3.264014966e-27
2.518387525e-27
1.951840608e-27
1.521003307e-27
1.193546344e-27
9.453287872e-28
7.583330658e-28
6.191664408e-28
5.179744147e-28
4.476592688e-28
4.029008225e-28
4.685411165e-27
0.07587352458
0.08891643247
0.08967422014
0.2416254115
0.06869346406
9.497849247
22.31556109
11.46850513
10454.63317
1.465192257e-22
1.15415105e-22
5.93312465e-23
3.231479007e-23
1.832586506e-23
1.075846245e-23
6.512071901e-24
4.050958787e-24
2.582450877e-24
1.682824564e-24
1.118367165e-24
7.564338307e-25
5.197404704e-25
3.621572109e-25
2.555287852e-25
1.823126935e-25
1.313682682e-25
9.549428795e-26
6.995914212e-26
5.160643829e-26
3.830088571e-26
2.857915662e-26
2.14263908e-26
1.613098644e-26
1.218892863e-26
9.239924428e-27
7.024242393e-27
5.353206378e-27
4.088805294e-27
3.129460172e-27
2.399996204e-27
1.844516589e-27
1.421298988e-27
1.099115307e-27
8.545625608e-28
6.701188047e-28
5.327242789e-28
4.327474148e-28
3.632378876e-28
3.190199891e-28
5.90664382e-27
0.08634067124
0.1038941994
0.1677385342
0.2881783379
1.117918452
19.14220092
7.747036714
21.11840689
6100.138815
7.36326271e-23
5.392297032e-23
3.145961706e-23
1.894128762e-23
1.164182415e-23
7.29728103e-24
4.662281967e-24
3.034105131e-24
2.009270196e-24
1.352442116e-24
9.241142073e-25
6.40180041e-25
4.490567707e-25
3.185659637e-25
2.282987276e-25
1.651029376e-25
1.203731986e-25
8.839744681e-26
6.533243286e-26
4.855925208e-26
3.627201468e-26
2.721163725e-26
2.049124965e-26
1.548022921e-26
1.172624381e-26
8.902245851e-27
6.770041612e-27
5.154997591e-27
3.92831158e-27
2.994475131e-27
2.282333926e-27
1.738665154e-27
1.323531569e-27
1.006900618e-27
7.661720816e-28
5.843638826e-28
4.48779226e-28
3.500295897e-28
2.813253003e-28
2.376493708e-28
7.096846449e-27
0.07770394055
0.1102440634
0.2320367817
0.07409855261
6.660219877
17.55329116
1.659993552
22.87546043
2706.04955
3.502853395e-23
2.544813164e-23
1.670400723e-23
1.102414582e-23
7.304387808e-24
4.875469154e-24
3.284886402e-24
2.236591679e-24
1.539607826e-24
1.071444905e-24
7.535299102e-25
5.352384913e-25
3.837128145e-25
2.774286164e-25
2.021397743e-25
1.483147051e-25
1.095060381e-25
8.130535825e-26
6.066673378e-26
4.546446923e-26
3.420095447e-26
2.581163357e-26
1.953345117e-26
1.481521322e-26
1.12559064e-26
8.561854746e-27
6.516692179e-27
4.960137387e-27
3.772869742e-27
2.865671306e-27
2.171577046e-27
1.640163512e-27
1.233369574e-27
9.224231678e-28
6.855725252e-28
5.064071776e-28
3.726150686e-28
2.75065449e-28
2.071390425e-28
1.6398858e-28
8.179346312e-27
0.04129079532
0.09740749993
0.202537203
1.48941323
10.78586673
7.355518099
4.365416219
17.16991269
881.1427352
1.808573278e-23
1.247401397e-23
9.04408695e-24
6.466159983e-24
4.583290972e-24
3.241894797e-24
2.296897315e-24
1.633839073e-24
1.168426784e-24
8.406887943e-25
6.087376058e-25
4.435801062e-25
3.252074154e-25
2.397958844e-25
1.777593839e-25
1.324143187e-25
9.907090994e-26
7.441561288e-26
5.609060067e-26
4.240623994e-26
3.214339549e-26
2.441661703e-26
1.857879764e-26
1.415425407e-26
1.079141665e-26
8.229144365e-27
6.272575355e-27
4.775698825e-27
3.628698454e-27
2.748706677e-27
2.073013656e-27
1.554054367e-27
1.155691948e-27
8.504519593e-28
6.174586769e-28
4.408931797e-28
3.088422232e-28
2.124425404e-28
1.452517655e-28
1.026002268e-28
9.085225502e-27
0.008145494096
0.09680526644
0.5487729712
4.332943188
8.812742607
1.408136041
7.425358494
9.666027158
200.8748424
1.051804316e-23
6.456935207e-24
5.043163078e-24
3.854506375e-24
2.898904366e-24
2.161119173e-24
1.60434392e-24
1.189544201e-24
8.826018444e-25
6.561111388e-25
4.890230725e-25
3.6557897e-25
2.741514486e-25
2.062272379e-25
1.55593449e-25
1.177175942e-25
8.928803123e-26
6.787855101e-26
5.170555493e-26
3.945286912e-26
3.014540922e-26
2.305793238e-26
1.76489461e-26
1.351266548e-26
1.034394863e-26
7.912594557e-27
6.044422045e-27
4.607280894e-27
3.500666965e-27
2.647982533e-27
1.990747176e-27
1.484253504e-27
1.094297985e-27
7.947154186e-28
5.655170686e-28
3.914846403e-28
2.611107119e-28
1.658046405e-28
9.930456664e-29
5.712336284e-29
9.757689101e-27
0.05806381182
0.271795182
1.654329385
6.133822358
5.016238901
0.3659326675
7.7048219
4.295840947
28.79869844
6.644228162e-24
3.489779911e-24
2.898153838e-24
2.344325733e-24
1.857106964e-24
1.451486816e-24
1.124829652e-24
8.67102234e-25
6.663575536e-25
5.112480305e-25
3.919818325e-25
3.005287883e-25
2.30496936e-25
1.768903496e-25
1.358480157e-25
1.044063505e-25
8.029955196e-26
6.17988146e-26
4.758607052e-26
3.665634385e-26
2.824292706e-26
2.176035313e-26
1.676105718e-26
1.290248359e-26
9.922126153e-27
7.618578836e-27
5.837136254e-27
4.458838552e-27
3.392125724e-27
2.566471296e-27
1.927519699e-27
1.433368026e-27
1.051720468e-27
7.577098095e-28
5.322302003e-28
3.606632139e-28
2.319078608e-28
1.376471354e-28
7.180066059e-29
3.006604945e-29
1.015552008e-26
0.263256335
0.8008884646
3.156487531
5.952366554
1.70177202
1.855006832
6.496630533
1.576295652
2.076309023
4.371172448e-24
1.966476352e-24
1.720500374e-24
1.459079629e-24
1.208831437e-24
9.855364306e-25
7.943954715e-25
6.350523997e-25
5.045635887e-25
3.990311244e-25
3.144494228e-25
2.471102928e-25
1.937671905e-25
1.516725868e-25
1.18552458e-25
9.255334231e-26
7.218101459e-26
5.624048963e-26
4.378181782e-26
3.405328396e-26
2.646213427e-26
2.05422462e-26
1.592786936e-26
1.233250537e-26
9.532044141e-27
7.351373453e-27
5.653791868e-27
4.332666342e-27
3.304876275e-27
2.50567279e-27
1.884655275e-27
1.402627671e-27
1.029146254e-27
7.406103911e-28
5.187796207e-28
3.496257704e-28
2.22449097e-28
1.292034966e-28
6.398866882e-29
2.268657403e-29
1.025542417e-26
0.6672767505
1.930155566
4.312784319
3.745106857
0.06055027794
4.095195492
4.827446502
0.4784450873
0.06793263125
3.09394116e-24