/*--------------------------------*- C++ -*----------------------------------*\
  =========                 |
  \\      /  F ield         | OpenFOAM: The Open Source CFD Toolbox
   \\    /   O peration     | Website:  https://openfoam.org
    \\  /    A nd           | Version:  6
     \\/     M anipulation  |
\*---------------------------------------------------------------------------*/
FoamFile
{
    version     2.0;
    format      ascii;
    class       surfaceScalarField;
    location    "0.11";
    object      alphaPhi0.phase1;
}
// * * * * * * * * * * * * * * * * * * * * * * * * * * * * * * * * * * * * * //

dimensions      [0 3 -1 0 0 0 0];

internalField   nonuniform List<scalar> 
4900
(
-4.560426679e-21
-4.698848128e-21
1.434451305e-21
-3.267884131e-21
3.218981613e-21
-4.636535835e-22
3.767953389e-21
-2.212438399e-23
3.090016368e-21
6.684717049e-22
5.184062388e-22
3.994899e-22
-1.585947339e-40
-2.117253487e-39
1.877431546e-17
2.737156233e-18
-9.779122083e-21
4.404219826e-24
-9.69509987e-21
-8.402222356e-23
-9.529303556e-21
-1.657989789e-22
-9.28799969e-21
-2.413098513e-22
-8.979541032e-21
-3.08467763e-22
-8.613931457e-21
-3.656217151e-22
-8.202192973e-21
-4.117536188e-22
-7.755713128e-21
-4.46497942e-22
-7.285656158e-21
-4.700779915e-22
-6.802484159e-21
-4.831959046e-22
-6.315608374e-21
-4.869025281e-22
-5.833170999e-21
-4.824669016e-22
-5.361944329e-21
-4.712589243e-22
-4.907326257e-21
-4.546529918e-22
-4.473408237e-21
-4.339555405e-22
-4.06309239e-21
-4.103558962e-22
-3.67823729e-21
-3.848976056e-22
-3.31981582e-21
-3.584663537e-22
-2.988072678e-21
-3.317903227e-22
-2.682672927e-21
-3.054491463e-22
-2.40283626e-21
-2.798881911e-22
-2.147454233e-21
-2.554355913e-22
-1.91518962e-21
-2.323201281e-22
-1.704558348e-21
-2.106886453e-22
-1.513995317e-21
-1.906221705e-22
-1.341905839e-21
-1.721502886e-22
-1.18670465e-21
-1.55263577e-22
-1.046844416e-21
-1.399241028e-22
-9.208355772e-22
-1.260740926e-22
-8.072591643e-22
-1.136429557e-22
-7.047740308e-22
-1.025528688e-22
-6.121197237e-22
-9.272313858e-23
-5.281160073e-22
-8.407354759e-23
-4.516598693e-22
-7.652687308e-23
-3.817206678e-22
-7.001074465e-23
-3.173339374e-22
-6.445898608e-23
-2.575942441e-22
-5.981256646e-23
-2.016473642e-22
-5.602027582e-23
-1.486819308e-22
-5.303925788e-23
-9.792043876e-23
-5.08356512e-23
-4.860873569e-23
-4.938610334e-23
-4.868328341e-23
-4.891752599e-21
-5.476435612e-21
-1.24230365e-21
-5.754551178e-21
-9.666198792e-23
-2.104324411e-21
6.623643595e-23
-1.32276581e-22
1.133637534e-22
6.412484696e-23
1.267896393e-23
1.34784911e-23
-9.00686648e-19
-1.855442119e-41
6.749158294e-19
2.753373343e-19
-9.865175019e-21
1.279557509e-24
-9.776848377e-21
-1.723541825e-22
-9.604803961e-21
-3.378545284e-22
-9.355149349e-21
-4.909813283e-22
-9.03668989e-21
-6.269495391e-22
-8.660061526e-21
-7.422777494e-22
-8.236938404e-21
-8.349096995e-22
-7.779296678e-21
-9.041778467e-22
-7.298779315e-21
-9.50638678e-22
-6.806197118e-21
-9.758264857e-22
-6.311179587e-21
-9.819734086e-22
-5.821969885e-21
-9.717348168e-22
-5.345344921e-21
-9.47946854e-22
-4.886634746e-21
-9.134307655e-22
-4.449813804e-21
-8.708485882e-22
-4.037638523e-21
-8.226076583e-22
-3.651809674e-21
-7.708071707e-22
-3.293142683e-21
-7.172181529e-22
-2.961733725e-21
-6.632880307e-22
-2.657113609e-21
-6.101617996e-22
-2.378384801e-21
-5.58713168e-22
-2.124339501e-21
-5.095805289e-22
-1.893558539e-21
-4.632040332e-22
-1.684492019e-21
-4.198612479e-22
-1.495523385e-21
-3.796998565e-22
-1.325018936e-21
-3.427665918e-22
-1.171364885e-21
-3.090321114e-22
-1.032994051e-21
-2.784118781e-22
-9.084040493e-22
-2.507833214e-22
-7.961686723e-22
-2.259996738e-22
-6.949438979e-22
-2.039009255e-22
-6.034697452e-22
-1.843223428e-22
-5.205689698e-22
-1.671009719e-22
-4.45143409e-22
-1.520805089e-22
-3.761686132e-22
-1.391148709e-22
-3.12687261e-22
-1.280707542e-22
-2.538017387e-22
-1.18829421e-22
-1.986661767e-22
-1.112879179e-22
-1.464782074e-22
-1.053598882e-22
-9.647085438e-23
-1.009760814e-22
-4.790588305e-23
-9.808440884e-23
-9.664802374e-23
-6.221751825e-21
-2.319424867e-21
-3.869412754e-21
-8.177744293e-21
-5.846049141e-22
-5.113438447e-21
-6.951778781e-26
-9.64151928e-22
-3.84322444e-26
8.151513248e-27
-6.72855895e-27
5.610238142e-26
-5.36702466e-19
4.388659189e-26
-1.468551858e-17
-2.747565035e-19
-1.003703172e-20
-3.252941162e-24
-9.942308518e-21
-2.670817391e-22
-9.757906823e-21
-5.222654987e-22
-9.491100163e-21
-7.578022171e-22
-9.152007823e-21
-9.660608464e-22
-8.752690137e-21
-1.141619068e-21
-8.306209328e-21
-1.281418753e-21
-7.825765173e-21
-1.384654801e-21
-7.323978275e-21
-1.452462866e-21
-6.812357309e-21
-1.487489158e-21
-6.300955169e-21
-1.493421591e-21
-5.798196022e-21
-1.474544253e-21
-5.310842138e-21
-1.435355178e-21
-4.844064602e-21
-1.380266789e-21
-4.401583368e-21
-1.313392248e-21
-3.985846889e-21
-1.238410387e-21
-3.598227893e-21
-1.158496119e-21
-3.239218286e-21
-1.07630129e-21
-2.908611863e-21
-9.939714313e-22
-2.605668171e-21
-9.131857835e-22
-2.329254364e-21
-8.352104433e-22
-2.077964395e-21
-7.609570033e-22
-1.850216494e-21
-6.910413333e-22
-1.644330862e-21
-6.258390275e-22
-1.458589975e-21
-5.655354944e-22
-1.291284034e-21
-5.10169739e-22
-1.14074404e-21
-4.596716173e-22
-1.005364761e-21
-4.138928247e-22
-8.836196028e-22
-3.726321546e-22
-7.740691013e-22
-3.356557063e-22
-6.753645014e-22
-3.027127627e-22
-5.862475935e-22
-2.735480441e-22
-5.055477771e-22
-2.479109883e-22
-4.321771051e-22
-2.255626381e-22
-3.651239033e-22
-2.062806386e-22
-3.034454135e-22
-1.8986277e-22
-2.462598041e-22
-1.761293692e-22
-1.92737801e-22
-1.649249254e-22
-1.420941402e-22
-1.561190723e-22
-9.357899752e-23
-1.496071198e-22
-4.64693641e-23
-1.453101616e-22
-1.431747299e-22
-6.654628376e-21
-9.980331219e-22
-6.072431391e-21
-1.055778208e-20
-2.972220661e-21
-8.919801905e-21
-2.543373529e-22
-3.435785651e-21
-2.483747586e-24
-3.118595346e-22
-2.988040048e-26
1.802143808e-24
-9.947202687e-20
8.066431162e-26
-8.993457114e-18
-5.759510604e-19
-1.030242515e-20
-5.20598912e-24
-1.019744586e-20
-3.72065324e-22
-9.993405411e-21
-7.263150518e-22
-9.699331692e-21
-1.051889918e-21
-9.327550756e-21
-1.337860435e-21
-8.892485789e-21
-1.576707285e-21
-8.409451042e-21
-1.764481299e-21
-7.893586453e-21
-1.90055168e-21
-7.35902299e-21
-1.987063046e-21
-6.818311147e-21
-2.028242075e-21
-6.282100306e-21
-2.029677783e-21
-5.759028999e-21
-1.997665098e-21
-5.255774306e-21
-1.938663503e-21
-4.777208448e-21
-1.85889027e-21
-4.326617377e-21
-1.764044827e-21
-3.905945878e-21
-1.659147165e-21
-3.516043791e-21
-1.548467137e-21
-3.156896823e-21
-1.435520717e-21
-2.827832546e-21
-1.323111567e-21
-2.527697389e-21
-1.213400068e-21
-2.255004004e-21
-1.107986089e-21
-2.008050604e-21
-1.00799566e-21
-1.785015116e-21
-9.141649315e-22
-1.584027525e-21
-8.269174402e-22
-1.40322387e-21
-7.46432539e-22
-1.240785172e-21
-6.727042483e-22
-1.094964242e-21
-6.055906324e-22
-9.641029226e-22
-5.448543569e-22
-8.466419016e-22
-4.90195368e-22
-7.411248819e-22
-4.412767497e-22
-6.461985305e-22
-3.977448212e-22
-5.606093435e-22
-3.592444738e-22
-4.831983155e-22
-3.254306469e-22
-4.128940949e-22
-2.959767301e-22
-3.487051367e-22
-2.705805622e-22
-2.897112354e-22
-2.489685845e-22
-2.350547087e-22
-2.308986111e-22
-1.839314246e-22
-2.161615814e-22
-1.355817933e-22
-2.045825871e-22
-8.928177205e-23
-1.960213909e-22
-4.433379834e-23
-1.903726053e-22
-1.875657387e-22
-6.433035729e-21
-8.060223449e-22
-8.246816043e-21
-4.092324109e-21
-5.409598125e-21
-1.323954374e-20
-1.624138642e-21
-6.85172296e-21
-3.023212507e-24
-2.339336185e-22
-9.283436619e-26
1.231943663e-24
-1.414629254e-19
2.992855752e-25
2.196864571e-18
-1.272481656e-18
-1.067160592e-20
-6.329249305e-24
-1.055163168e-20
-4.920438486e-22
-1.031892567e-20
-9.590301585e-22
-9.985264628e-21
-1.385564928e-21
-9.566377858e-21
-1.756765834e-21
-9.080256637e-21
-2.062851731e-21
-8.545532124e-21
-2.299233579e-21
-7.980118928e-21
-2.465997131e-21
-7.400229939e-21
-2.566988714e-21
-6.819778307e-21
-2.608734736e-21
-6.2501199e-21
-2.599381491e-21
-5.700058475e-21
-2.547776008e-21
-5.176029558e-21
-2.462745994e-21
-4.682388097e-21
-2.352589293e-21
-4.221741058e-21
-2.224753308e-21
-3.795283427e-21
-2.085670005e-21
-3.403111387e-21
-1.940708033e-21
-3.044498474e-21
-1.794206011e-21
-2.718129046e-21
-1.649556773e-21
-2.422289042e-21
-1.509319114e-21
-2.155017256e-21
-1.375340047e-21
-1.914221995e-21
-1.248876085e-21
-1.697768523e-21
-1.130706418e-21
-1.503542596e-21
-1.021234091e-21
-1.329494871e-21
-9.205735508e-22
-1.17367037e-21
-8.286244551e-22
-1.034226467e-21
-7.451325132e-22
-9.094422501e-22
-6.697386768e-22
-7.977215157e-22
-6.02018182e-22
-6.975911787e-22
-5.415109953e-22
-6.076964585e-22
-4.877451312e-22
-5.26793884e-22
-4.402541717e-22
-4.537428885e-22
-3.985901519e-22
-3.874965595e-22
-3.623328075e-22
-3.270919485e-22
-3.31096014e-22
-2.716402169e-22
-3.045321032e-22
-2.203168046e-22
-2.82334611e-22
-1.723517293e-22
-2.642398993e-22
-1.270200703e-22
-2.500279987e-22
-8.363263411e-23
-2.395229443e-22
-4.152675618e-23
-2.325928197e-22
-2.29149705e-22
-1.538690662e-21
-6.252849849e-22
-9.425198539e-21
-7.666835319e-22
-7.374724996e-21
-1.225770704e-20
-3.533521911e-22
-1.973177383e-20
-9.083546619e-23
-9.605023775e-21
-7.91487971e-27
-6.293811586e-23
-5.429081131e-19
8.518082661e-25
4.923632959e-18
-2.141189678e-18
-1.11598061e-20
-7.859333507e-24
-1.101852847e-20
-6.333257631e-22
-1.074538609e-20
-1.232181647e-21
-1.035641664e-20
-1.774548345e-21
-9.872440802e-21
-2.24076031e-21
-9.316638889e-21
-2.618676875e-21
-8.712314875e-21
-2.903585368e-21
-8.081143106e-21
-3.097201164e-21
-7.442016657e-21
-3.206151851e-21
-6.810469267e-21
-3.240323168e-21
-6.19855853e-21
-3.211337541e-21
-5.615069931e-21
-3.131314106e-21
-5.065910079e-21
-3.011959434e-21
-4.554584262e-21
-2.863972686e-21
-4.082684593e-21
-2.696714434e-21
-3.650343145e-21
-2.518076677e-21
-3.256626329e-21
-2.334493722e-21
-2.89986203e-21
-2.151042707e-21
-2.577900622e-21
-1.971593975e-21
-2.288316258e-21
-1.798982537e-21
-2.028557192e-21
-1.635181302e-21
-1.796054345e-21
-1.481464112e-21
-1.588296769e-21
-1.338552026e-21
-1.402881556e-21
-1.206740044e-21
-1.237544506e-21
-1.086003906e-21
-1.090176635e-21
-9.760880493e-22
-9.588305085e-22
-8.765766346e-22
-8.417194563e-22
-7.869498488e-22
-7.372119702e-22
-7.066277649e-22
-6.438229835e-22
-6.350039077e-22
-5.602032599e-22
-5.714704615e-22
-4.851277637e-22
-5.154368079e-22
-4.174836141e-22
-4.663428272e-22
-3.562580282e-22
-4.236681578e-22
-3.005265058e-22
-3.869383928e-22
-2.494414069e-22
-3.557290041e-22
-2.022209934e-22
-3.296676264e-22
-1.581389492e-22
-3.084351997e-22
-1.165143564e-22
-2.917663568e-22
-7.670207006e-23
-2.794493599e-22
-3.808342203e-23
-2.713258157e-22
-2.672903501e-22
-3.507649123e-22
-3.348755951e-22
-7.085846139e-21
-6.154643052e-22
-1.655677053e-20
-6.978181224e-22
-1.125556214e-20
-3.434634909e-20
-6.638914851e-22
-2.766598103e-20
-1.468526331e-24
-2.331146158e-21
-8.591451002e-19
8.527771726e-24
3.777089208e-18
-3.714242477e-18
-1.178899011e-20
-1.116575437e-23
-1.161726943e-20
-8.050507371e-22
-1.128765455e-20
-1.561805635e-21
-1.082256792e-20
-2.239648955e-21
-1.025033378e-20
-2.813013089e-21
-9.601555916e-21
-3.267477983e-21
-8.905963756e-21
-3.599205315e-21
-8.190143169e-21
-3.813054028e-21
-7.476246038e-21
-3.920085686e-21
-6.781544196e-21
-3.935066066e-21
-6.118593596e-21
-3.874333473e-21
-5.495768732e-21
-3.754188488e-21
-4.917970119e-21
-3.589811655e-21
-4.387365461e-21
-3.394634942e-21
-3.904079002e-21
-3.180062373e-21
-3.466785572e-21
-2.955435355e-21
-3.073194665e-21
-2.728153525e-21
-2.720427475e-21
-2.50388232e-21
-2.405299051e-21
-2.28679822e-21
-2.124521395e-21
-2.079839279e-21
-1.87484361e-21
-1.884941304e-21
-1.653143737e-21
-1.703249194e-21
-1.456484669e-21
-1.535299154e-21
-1.282144142e-21
-1.381171341e-21
-1.127626572e-21
-1.240614811e-21
-9.906626228e-22
-1.113147751e-21
-8.692008246e-22
-9.98136458e-22
-7.613943415e-22
-8.94856482e-22
-6.655850752e-22
-8.025391582e-22
-5.802865853e-22
-7.204063535e-22
-5.041668067e-22
-6.476958772e-22
-4.36031182e-22
-5.836796029e-22
-3.748065734e-22
-5.276759916e-22
-3.195261412e-22
-4.790583844e-22
-2.693152557e-22
-4.372601643e-22
-2.233784344e-22
-4.017776567e-22
-1.809872401e-22
-3.721714515e-22
-1.414690479e-22
-3.480666764e-22
-1.041965678e-22
-3.2915263e-22
-6.857799908e-23
-3.15182085e-22
-3.404769351e-23
-3.05970496e-22
-3.013952816e-22
-1.949511001e-22
-5.012203868e-23
-2.730411693e-22
-4.163278363e-22
-1.513954088e-20
-4.42062992e-22
-2.223518331e-20
-8.181517609e-21
-9.118575955e-21
-4.563797136e-20
-2.508607904e-23
-2.123321905e-20
-1.263676012e-18
-2.897152902e-22
1.389133998e-18
-5.772538878e-18
-1.25890909e-20
-1.68864635e-23
-1.237386583e-20
-1.020280112e-21
-1.196537014e-20
-1.970310429e-21
-1.139585996e-20
-2.809173128e-21
-1.070477944e-20
-3.504112258e-21
-9.933307469e-21
-4.038973206e-21
-9.119867695e-21
-4.412672888e-21
-8.297248579e-21
-4.635705435e-21
-7.491308045e-21
-4.726062939e-21
-6.720893055e-21
-4.705522131e-21
-5.998524478e-21
-4.5967474e-21
-5.331459034e-21
-4.421303469e-21
-4.722850411e-21
-4.198473909e-21
-4.17283959e-21
-3.944703383e-21
-3.679488977e-21
-3.673474489e-21
-3.239532069e-21
-3.395457536e-21
-2.848944343e-21
-3.118810173e-21
-2.503358067e-21
-2.849541045e-21
-2.198349792e-21
-2.591882342e-21
-1.929629147e-21
-2.348639039e-21
-1.693154184e-21
-2.121498512e-21
-1.485194101e-21
-1.911294516e-21
-1.302355605e-21
-1.71822574e-21
-1.141585205e-21
-1.542032541e-21
-1.000156346e-21
-1.382137035e-21
-8.756477095e-22
-1.237752172e-21
-7.659170073e-22
-1.107965217e-21
-6.690731287e-22
-9.918005425e-22
-5.83448461e-22
-8.882659851e-22
-5.075724696e-22
-7.963863331e-22
-4.401471259e-22
-7.152268902e-22
-3.800244384e-22
-6.439094929e-22
-3.261861339e-22
-5.816228841e-22
-2.777254034e-22
-5.276289414e-22
-2.338305516e-22
-4.812659339e-22
-1.937703553e-22
-4.41949716e-22
-1.568809119e-22
-4.09173557e-22
-1.225537656e-22
-3.82507138e-22
-9.022510031e-23
-3.615951188e-22
-5.936579724e-23
-3.461555745e-22
-2.947217343e-23
-3.359785241e-22
-3.309247085e-22
-3.885446526e-23
-1.527187039e-24
-1.418041544e-22
-1.889751892e-22
-2.017924429e-21
-3.350616804e-22
-2.625668279e-20
-2.322265812e-22
-1.794154186e-20
-2.853387311e-20
-1.715746582e-21
-3.508184331e-20
8.355799601e-21
-3.491452861e-21
8.443224218e-19
-3.681291857e-22
-1.360186072e-20
-2.109939208e-23
-1.332365315e-20
-1.298491991e-21
-1.280406913e-20
-2.48990356e-21
-1.209071829e-20
-3.522537959e-21
-1.123963488e-20
-4.355214331e-21
-1.03070595e-20
-4.97157185e-21
-9.34299008e-21
-5.376770118e-21
-8.387714861e-21
-5.59101296e-21
-7.470880476e-21
-5.642934058e-21
-6.612226088e-21
-5.56421761e-21
-5.823176924e-21
-5.385841932e-21
-5.108711673e-21
-5.135818277e-21
-4.469147285e-21
-4.838091948e-21
-3.901664042e-21
-4.512244269e-21
-3.401512812e-21
-4.173687246e-21
-2.962914752e-21
-3.834120893e-21
-2.57969638e-21
-3.502097492e-21
-2.245713393e-21
-3.183596508e-21
-1.955114931e-21
-2.882556679e-21
-1.702492793e-21
-2.601340319e-21
-1.482951186e-21
-2.341122393e-21
-1.292124031e-21
-2.102206939e-21
-1.12615952e-21
-1.884278371e-21
-9.816857676e-22
-1.686597124e-21
-8.557669226e-22
-1.508149276e-21
-7.458558786e-22
-1.347759032e-21
-6.497473741e-22
-1.204171811e-21
-5.655336971e-22
-1.076114434e-21
-4.915641372e-22
-9.623377367e-22
-4.264086373e-22
-8.616458541e-22
-3.688256735e-22
-7.729155562e-22
-3.1773414e-22
-6.951082618e-22
-2.721888835e-22
-6.272767616e-22
-2.313594758e-22
-5.685682082e-22
-1.945118007e-22
-5.182245594e-22
-1.609920452e-22
-4.755813667e-22
-1.302127166e-22
-4.400655797e-22
-1.016403371e-22
-4.111928646e-22
-7.478450634e-23
-3.885648044e-22
-4.918805072e-23
-3.718662476e-22
-2.441801084e-23
-3.608629992e-22
-3.553999887e-22
2.598176122e-24
-2.582841992e-28
-7.15326688e-23
-2.55461751e-23
-8.103566435e-23
-2.167778421e-22
-9.363413117e-21
-1.997042385e-22
-2.168044251e-20
-4.493481015e-21
-5.01962998e-21
-3.449479219e-20
7.272649155e-23
-2.322316743e-21
4.251063827e-25
-1.005377998e-16
-1.489064966e-20
-6.301679249e-23
-1.451471698e-20
-1.674428977e-21
-1.38364977e-20
-3.168131954e-21
-1.292331279e-20
-4.435736864e-21
-1.185601802e-20
-5.422527774e-21
-1.071235858e-20
-6.115254559e-21
-9.55737591e-21
-6.531780616e-21
-8.439794238e-21
-6.70862695e-21
-7.39231882e-21
-6.690446225e-21
-6.433990401e-21
-6.522587137e-21
-5.573272956e-21
-6.246604764e-21
-4.811083231e-21
-5.898057579e-21
-4.143376658e-21
-5.505852192e-21
-3.563165518e-21
-5.092513073e-21
-3.061989224e-21
-4.67492509e-21
-2.630921255e-21
-4.265254183e-21
-2.261215097e-21
-3.871872624e-21
-1.944685384e-21
-3.500198723e-21
-1.673904453e-21
-3.153413512e-21
-1.442276393e-21
-2.833047549e-21
-1.24403416e-21
-2.539446929e-21
-1.07419177e-21
-2.272134626e-21
-9.284732081e-22
-2.030085084e-21
-8.032320446e-22
-1.81192915e-21
-6.953704088e-22
-1.61610434e-21
-6.022622937e-22
-1.440962996e-21
-5.216837538e-22
-1.284848472e-21
-4.517510228e-22
-1.146147412e-21
-3.908666402e-22
-1.023324344e-21
-3.37673148e-22
-9.149434004e-22
-2.910136444e-22
-8.196807951e-22
-2.498983766e-22
-7.363307982e-22
-2.134765408e-22
-6.638072514e-22
-1.810125056e-22
-6.011421356e-22
-1.518657434e-22
-5.474823051e-22
-1.254738371e-22
-5.020852012e-22
-1.013380099e-22
-4.643141334e-22
-7.901070153e-23
-4.336335524e-22
-5.808477877e-23
-4.096046141e-22
-3.818402711e-23
-3.918812485e-22
-1.895461437e-23
-3.802068786e-22
-3.744118885e-22
7.968948775e-27
1.037489679e-28
2.997068783e-24
5.794322561e-25
-4.830677767e-23
-8.378207427e-23
-9.442988549e-22
-1.49834462e-22
-1.719366229e-20
-3.093993089e-22
-4.447509606e-22
-3.820344847e-22
-1.42834844e-16
-2.742086681e-22
-1.478309672e-17
-1.248318077e-15
-1.651731922e-20
-1.94123096e-22
-1.600789541e-20
-2.183857082e-21
-1.510382904e-20
-4.072207453e-21
-1.391003719e-20
-5.629542706e-21
-1.254883377e-20
-6.783749879e-21
-1.112906692e-20
-7.535044689e-21
-9.73444525e-21
-7.926430121e-21
-8.421840078e-21
-8.021264453e-21
-7.224667394e-21
-7.887655674e-21
-6.158185756e-21
-7.589109899e-21
-5.224870274e-21
-7.17996565e-21
-4.418990457e-21
-6.70398699e-21
-3.730121966e-21
-6.194774375e-21
-3.145638374e-21
-5.677054352e-21
-2.65236019e-21
-5.168264847e-21
-2.2375668e-21
-4.680112917e-21
-1.889557112e-21
-4.219951311e-21
-1.597907836e-21
-3.791920527e-21
-1.353540229e-21
-3.397857049e-21
-1.148673397e-21
-3.03799358e-21
-9.76716736e-22
-2.711485922e-21
-8.321353878e-22
-2.416801302e-21
-7.10309466e-22
-2.151999187e-21
-6.07399001e-22
-1.914930507e-21
-5.202207846e-22
-1.703376015e-21
-4.46139706e-22
-1.515139954e-21
-3.82975019e-22
-1.348111312e-21
-3.289207778e-22
-1.200301932e-21
-2.824790797e-22
-1.069868299e-21
-2.424045156e-22
-9.551220514e-22
-2.076582181e-22
-8.545328608e-22
-1.773699909e-22
-7.667263271e-22
-1.508071602e-22
-6.904787693e-22
-1.273489632e-22
-6.24710258e-22
-1.064654567e-22
-5.684768279e-22
-8.770009218e-23
-5.209625266e-22
-7.065523513e-23
-4.814717498e-22
-5.498003322e-23
-4.494221663e-22
-4.036013055e-23
-4.24338436e-22
-2.65088093e-23
-4.058468511e-22
-1.31592024e-23
-3.936709841e-22
-3.876283922e-22
-1.123633831e-59
-5.363675139e-61
4.734332799e-24
9.004122562e-25
-1.835297717e-23
-3.913850105e-24
-7.196436961e-23
-6.839015801e-23
-1.087843878e-22
-1.524830132e-22
-1.208624467e-23
-1.933436309e-22
-2.951077738e-15
-1.770992987e-22
-1.924458871e-17
-7.276196641e-16
-1.85407407e-20
-6.451300316e-24
-1.789524542e-20
-2.829356664e-21
-1.66608025e-20
-5.306659503e-21
-1.506424467e-20
-7.226114532e-21
-1.330034294e-20
-8.547670293e-21
-1.152076864e-20
-9.314642278e-21
-9.829619783e-21
-9.617606827e-21
-8.288548624e-21
-9.562367956e-21
-6.926393203e-21
-9.249847874e-21
-5.749260281e-21
-8.766283961e-21
-4.749059607e-21
-8.180211744e-21
-3.909901485e-21
-7.543194726e-21
-3.212489152e-21
-6.892240419e-21
-2.636907425e-21
-6.252693786e-21
-2.164245046e-21
-5.640988821e-21
-1.777425915e-21
-5.066997416e-21
-1.461535528e-21
-4.535910721e-21
-1.203845536e-21
-4.049683072e-21
-9.936725509e-22
-3.608105989e-21
-8.221580844e-22
-3.209587272e-21
-6.820224209e-22
-2.851703945e-21
-5.673225346e-22
-2.531586544e-21
-4.732296949e-22
-2.246180238e-21
-3.958335351e-22
-1.992417589e-21
-3.319741716e-22
-1.767328869e-21
-2.791011267e-22
-1.568108909e-21
-2.35156424e-22
-1.3921542e-21
-1.984787054e-22
-1.237079962e-21
-1.677251822e-22
-1.100724112e-21
-1.418084547e-22
-9.811428981e-22
-1.198455673e-22
-8.76601549e-22
-1.011170346e-22
-7.855621941e-22
-8.503393015e-23
-7.066705936e-22
-7.111145414e-23
-6.38742692e-22
-5.894767815e-23
-5.807516529e-22
-4.820640427e-23
-5.31815794e-22
-3.860327538e-23
-4.911876704e-22
-2.989443473e-23
-4.582444511e-22
-2.186716381e-23
-4.324796581e-22
-1.433203025e-23
-4.134962978e-22
-7.116157228e-24
-4.010013873e-22
-3.948018664e-22
-1.255401564e-63
-8.919677309e-65
7.064859728e-48
2.111841238e-48
5.345384347e-24
7.762510778e-24
-3.212013456e-23
-1.969575684e-23
-6.736231559e-23
-1.086563925e-22
-5.299282448e-23
-1.809269575e-22
-6.133322529e-16
-1.604534919e-22
3.642919868e-18
-3.341570462e-17
-2.14548297e-20
-3.348193383e-22
-2.037204645e-20
-3.912144213e-21
-1.858005757e-20
-7.098657518e-21
-1.638601599e-20
-9.420170117e-21
-1.406776683e-20
-1.086593813e-20
-1.182426154e-20
-1.155817087e-20
-9.774885128e-21
-1.166701109e-20
-7.976459534e-21
-1.136082591e-20
-6.443171896e-21
-1.07831723e-20
-5.163445879e-21
-1.004605113e-20
-4.112227657e-21
-9.231475404e-21
-3.259073943e-21
-8.396398071e-21
-2.573024731e-21
-7.578343361e-21
-2.025251857e-21
-6.800524388e-21
-1.590279629e-21
-6.076022666e-21
-1.246349019e-21
-5.410993417e-21
-9.75306857e-22
-4.807021929e-21
-7.622605089e-22
-4.262801998e-21
-5.951417321e-22
-3.775300747e-21
-4.642604211e-22
-3.340547835e-21
-3.618897538e-22
-2.954157e-21
-2.819008984e-22
-2.611660783e-21
-2.194522036e-22
-2.308717172e-21
-1.707307931e-22
-2.041229951e-21
-1.327411987e-22
-1.805411982e-21
-1.031344961e-22
-1.597811553e-21
-8.007137852e-23
-1.415315533e-21
-6.211313878e-23
-1.255138544e-21
-4.813529658e-23
-1.114804275e-21
-3.725941789e-23
-9.921229276e-22
-2.879944253e-23
-8.85167357e-22
-2.221951508e-23
-7.922494877e-22
-1.710089533e-23
-7.118979652e-22
-1.311600751e-23
-6.428375698e-22
-1.000808266e-23
-5.839706588e-22
-7.575167115e-24
-5.343607349e-22
-5.657524175e-24
-4.932181368e-22
-4.127657148e-24
-4.598877939e-22
-2.882338876e-24
-4.338389591e-22
-1.836154603e-24
-4.146568266e-22
-9.161571009e-25
-4.020359461e-22
-3.957753556e-22
-1.906289493e-55
-1.689983048e-56
-1.526041099e-51
-4.221472847e-52
1.082121268e-35
5.575415026e-36
-9.985285148e-24
5.639615014e-24
-5.515437888e-23
-5.298365014e-23
-7.08864102e-23
-7.546195991e-22
-2.363309103e-17
-4.816017242e-22
2.496779819e-26
-2.274640444e-17
-2.524472363e-20
-7.114204711e-22
-2.355757625e-20
-5.59929588e-21
-2.090151424e-20
-9.754728672e-21
-1.783239264e-20
-1.248930572e-20
-1.476084873e-20
-1.393750073e-20
-1.193394275e-20
-1.438510016e-20
-9.469417356e-21
-1.413156435e-20
-7.399365831e-21
-1.34309098e-20
-5.706460813e-21
-1.247611413e-20
-4.349154992e-21
-1.140339812e-20
-3.277338033e-21
-1.030333782e-20
-2.441135381e-21
-9.232650371e-21
-1.795271235e-21
-8.224261255e-21
-1.300780967e-21
-7.295072403e-21
-9.252583497e-22
-6.451606919e-21
-6.423710333e-22
-5.693946146e-21
-4.310717864e-22
-5.018390245e-21
-2.747394254e-22
-4.41920696e-21
-1.603669031e-22
-3.889749275e-21
-7.784726008e-23
-3.423146755e-21
-1.937183562e-23
-3.012714837e-21
2.106318679e-23
-2.652181215e-21
4.80539466e-23
-2.335796198e-21
6.510443018e-23
-2.058371415e-21
7.487479266e-23
-1.815275892e-21
7.937544798e-23
-1.602408178e-21
8.011798936e-23
-1.416156319e-21
7.823207713e-23
-1.253353003e-21
7.455568428e-23
-1.111230232e-21
6.97045915e-23
-9.873760159e-22
6.41257822e-23
-8.796944108e-22
5.813838234e-23
-7.863694846e-22
5.196498733e-23
-7.058333528e-22
4.575558517e-23
-6.367381884e-22
3.960578887e-23
-5.779319743e-22
3.357070573e-23
-5.284377078e-22
2.767547197e-23
-4.874357572e-22
2.192325137e-23
-4.542490797e-22
1.630132063e-23
-4.283310415e-22
1.078573047e-23
-4.092556111e-22
5.344931754e-24
-3.967097388e-22
-3.904877705e-22
3.63279514e-34
3.134354401e-35
3.489411638e-34
1.864855352e-34
8.543047806e-32
9.120035118e-35
9.254012353e-24
1.428726929e-23
-1.624904993e-22
-1.010002545e-23
-1.002817693e-22
-5.198065511e-23
-1.671362404e-17
-4.823971978e-23
6.563310002e-27
-6.02318729e-17
-3.055997182e-20
-1.428651686e-21
-2.77122848e-20
-8.446987198e-21
-2.363675852e-20
-1.383026408e-20
-1.928201255e-20
-1.684406571e-20
-1.520994348e-20
-1.80095885e-20
-1.168167626e-20
-1.791339069e-20
-8.769727548e-21
-1.704354093e-20
-6.445251379e-21
-1.575541835e-20
-4.634197885e-21
-1.428720444e-20
-3.249378468e-21
-1.278825872e-20
-2.206815382e-21
-1.134594637e-20
-1.432830904e-21
-1.000668451e-20
-8.661150952e-22
-8.79103083e-21
-4.573159611e-22
-7.703929301e-21
-1.675791293e-22
-6.741405406e-21
3.321349073e-23
-5.894804198e-21
1.681447063e-22
-5.153390551e-21
2.547525926e-22
-4.50588747e-21
3.06269025e-22
-3.941341735e-21
3.326160081e-22
-3.449573039e-21
3.411905261e-22
-3.021371792e-21
3.374741395e-22
-2.648550264e-21
3.255018795e-22
-2.32391223e-21
3.082204554e-22
-2.041180996e-21
2.877605635e-22
-1.794909575e-21
2.65643141e-22
-1.580386753e-21
2.429351424e-22
-1.393546593e-21
2.203669059e-22
-1.230885167e-21
1.984203788e-22
-1.089386084e-21
1.773952748e-22
-9.664551218e-22
1.574585465e-22
-8.598635745e-22
1.386812522e-22
-7.676996163e-22
1.210659109e-22
-6.883268233e-22
1.045666835e-22
-6.203490111e-22
8.910415281e-23
-5.625805846e-22
7.457604104e-23
-5.140216814e-22
6.086488218e-23
-4.738374816e-22
4.784341941e-23
-4.413411524e-22
3.537831598e-23
-4.159799801e-22
2.33326309e-23
-3.973243295e-22
1.156740964e-23
-3.850591375e-22
-3.789777209e-22
1.675837016e-35
4.184038957e-37
4.431845417e-30
6.329592293e-31
1.262747358e-29
2.891463504e-30
7.172362727e-24
2.794039977e-24
-2.134669621e-24
6.373734852e-24
-6.970612664e-24
-5.425873994e-31
-3.115218511e-17
-1.809551391e-38
-1.293995307e-17
-2.570027282e-17
-3.833199177e-20
-3.30139286e-21
-3.309636279e-20
-1.368262048e-20
-2.665315566e-20
-2.027348034e-20
-2.045046293e-20
-2.304677247e-20
-1.511618441e-20
-2.334388572e-20
-1.081360332e-20
-2.22159951e-20
-7.482796307e-21
-2.037437582e-20
-4.977784787e-21
-1.826046225e-20
-3.135689447e-21
-1.61293366e-20
-1.807298545e-21
-1.411669082e-20
-8.676565633e-22
-1.228563383e-20
-2.172021159e-22
-1.065718864e-20
2.210061865e-22
-9.229292913e-21
5.052511272e-22
-7.988232023e-21
6.79075699e-22
-6.915291651e-21
7.746834848e-22
-5.990477435e-21
8.157025266e-22
-5.194478702e-21
8.193492103e-22
-4.509606798e-21
7.980837564e-22
-3.920152331e-21
7.608581833e-22
-3.412426788e-21
7.140480281e-22
-2.974644097e-21
6.621435514e-22
-2.596731246e-21
6.082603436e-22
-2.270117338e-21
5.545154289e-22
-1.987527112e-21
5.023037127e-22
-1.742791459e-21
4.525008183e-22
-1.530679881e-21
4.056116479e-22
-1.346755721e-21
3.618789576e-22
-1.187252903e-21
3.213624834e-22
-1.048972016e-21
2.839963799e-22
-9.291932548e-22
2.496306856e-22
-8.256037992e-22
2.180610252e-22
-7.362374089e-22
1.890496502e-22
-6.594242874e-22
1.623401086e-22
-5.937495467e-22
1.376672295e-22
-5.380188739e-22
1.147636744e-22
-4.91230239e-22
9.336397463e-23
-4.525506925e-22
7.32067395e-23
-4.212974799e-22
5.403554163e-23
-3.969228514e-22
3.559885615e-23
-3.790020745e-22
1.764933799e-23
-3.672242662e-22
-3.613857553e-22
0
0
2.966464798e-30
5.400982936e-31
1.318633611e-29
4.339168947e-30
7.654334872e-31
2.225500368e-31
2.963577163e-24
3.125087354e-24
1.778734315e-35
-1.681501228e-32
-8.256941651e-18
3.359555222e-27
-3.470531186e-17
-2.797987747e-17
-4.99025461e-20
-9.544837587e-21
-3.96935805e-20
-2.389159039e-20
-2.943314156e-20
-3.053392843e-20
-2.075282915e-20
-3.172709891e-20
-1.399185101e-20
-3.010488257e-20
-8.97419283e-21
-2.723367661e-20
-5.3701596e-21
-2.397843694e-20
-2.847338678e-21
-2.078331557e-20
-1.123359946e-21
-1.785335217e-20
2.365284129e-23
-1.526374481e-20
7.607986294e-22
-1.302282511e-20
1.210761985e-21
-1.110720168e-20
1.462160523e-21
-9.480745246e-21
1.578291392e-21
-8.104420688e-21
1.603986418e-21
-6.941048366e-21
1.570770628e-21
-5.957327113e-21
1.500652956e-21
-5.124430158e-21
1.408872105e-21
-4.417898608e-21
1.30586822e-21
-3.817224515e-21
1.198691232e-21
-3.305329143e-21
1.092003728e-21
-2.868039074e-21
9.887938313e-22
-2.493606829e-21
8.908814121e-22
-2.172293257e-21
7.992772319e-22
-1.896013984e-21
7.144374712e-22
-1.65804532e-21
6.36443807e-22
-1.452782262e-21
5.651304611e-22
-1.275540697e-21
5.001734419e-22
-1.122396334e-21
4.411528072e-22
-9.90053811e-22
3.875956655e-22
-8.757403743e-22
3.390054239e-22
-7.771195012e-22
2.948812202e-22
-6.92220683e-22
2.547303617e-22
-6.193822929e-22
2.180757909e-22
-5.572050783e-22
1.844600287e-22
-5.045143052e-22
1.534466343e-22
-4.603289823e-22
1.246199256e-22
-4.238369194e-22
9.758349133e-23
-3.943746332e-22
7.195787271e-23
-3.714113267e-22
4.737768271e-23
-3.545363396e-22
2.348835265e-23
-3.434496074e-22
-3.379547861e-22
0
0
2.626136835e-31
2.108868778e-32
1.444895847e-29
3.781689128e-30
5.717172928e-31
1.897464638e-31
5.376562892e-33
5.196498707e-33
9.653544177e-33
3.685239254e-32
-6.271666959e-18
1.172947244e-27
-1.901148498e-17
-4.277928077e-17
-6.595811418e-20
-2.95611097e-20
-4.63558656e-20
-4.349384328e-20
-3.063948355e-20
-4.625031961e-20
-1.913845219e-20
-4.322814431e-20
-1.112497612e-20
-3.811837735e-20
-5.721178193e-21
-3.263749787e-20
-2.176066099e-21
-2.752357693e-20
8.224712361e-23
-2.304166119e-20
1.466204814e-21
-1.923734671e-20
2.264688951e-21
-1.606227016e-20
2.676602388e-21
-1.343478405e-20
2.837413418e-21
-1.126806242e-20
2.838670875e-21
-9.482056509e-21
2.741830159e-21
-8.007637782e-21
2.58785177e-21
-6.787131681e-21
2.403789857e-21
-5.773330682e-21
2.207287033e-21
-4.927996476e-21
2.009631584e-21
-4.220315838e-21
1.817834453e-21
-3.625503469e-21
1.636040035e-21
-3.123614086e-21
1.466484665e-21
-2.698566203e-21
1.310147823e-21
-2.337355485e-21
1.167194301e-21
-2.029428092e-21
1.037273919e-21
-1.766184675e-21
9.197239479e-22
-1.540588991e-21