/*--------------------------------*- C++ -*----------------------------------*\
  =========                 |
  \\      /  F ield         | OpenFOAM: The Open Source CFD Toolbox
   \\    /   O peration     | Website:  https://openfoam.org
    \\  /    A nd           | Version:  6
     \\/     M anipulation  |
\*---------------------------------------------------------------------------*/
FoamFile
{
    version     2.0;
    format      ascii;
    class       volVectorField;
    location    "0.11";
    object      gradT;
}
// * * * * * * * * * * * * * * * * * * * * * * * * * * * * * * * * * * * * * //

dimensions      [0 -1 0 1 0 0 0];

internalField   nonuniform List<vector> 
2500
(
(0 -1471.19612 26004.31019)
(0 -3381.939661 22672.47708)
(0 -3437.512559 17670.78386)
(0 -2641.612578 12718.98262)
(0 -1990.367624 8622.891994)
(0 -1612.681192 5352.432729)
(0 -1404.708933 2598.134406)
(0 -684.0907161 105.7000701)
(0 -21.40190579 44.14267865)
(0 -7.700998973 25.11162606)
(0 -4.452662832 13.78953849)
(0 -2.496774814 7.285130818)
(0 -1.34249046 3.70344369)
(0 -0.6901071443 1.817181898)
(0 -0.3398938734 0.8650491311)
(0 -0.1613066891 0.4018345583)
(0 -0.07431916315 0.1830295351)
(0 -0.03348841201 0.08195709693)
(0 -0.01483745157 0.03607261843)
(0 -0.006477540186 0.01556804751)
(0 -0.00278306872 0.006563636897)
(0 -0.001172638247 0.002692790443)
(0 -0.0004823674758 0.001071327225)
(0 -0.0001928837075 0.0004122709819)
(0 -7.471771743e-05 0.0001531946612)
(0 -2.797166313e-05 5.491305186e-05)
(0 -1.010420897e-05 1.898022017e-05)
(0 -3.518292519e-06 6.324606788e-06)
(0 -1.180575699e-06 2.033443762e-06)
(0 -3.843647285e-07 6.297219389e-07)
(0 -1.21313941e-07 1.847002399e-07)
(0 -3.279899801e-08 4.917496833e-08)
(0 -1.152905956e-08 1.491719135e-08)
(0 -7.246837438e-09 -1.364664193e-09)
(0 -3.764590877e-10 -4.752795982e-09)
(0 -1.364664193e-09 -3.482246561e-09)
(0 3.529303947e-09 -6.87037835e-09)
(0 5.505714157e-09 4.282222122e-09)
(0 1.882295438e-10 6.63509142e-09)
(0 -3.105787473e-09 3.952820421e-09)
(0 -1.97641021e-09 -4.752795982e-09)
(0 -2.399926684e-09 -7.152722666e-09)
(0 -2.823443158e-09 -1.298783852e-08)
(0 3.105787473e-09 -9.693821507e-09)
(0 5.788058473e-09 -8.470329473e-10)
(0 3.952820421e-09 4.89396814e-09)
(0 -4.705738596e-11 7.435066981e-09)
(0 -8.470329473e-10 6.588034034e-09)
(0 -2.352869298e-10 6.63509142e-09)
(0 -4.046935192e-09 4.046935192e-09)
(0 -1860.636981 14638.90042)
(0 -4951.586664 14473.09374)
(0 -6515.981905 13307.2794)
(0 -6406.279289 10746.13995)
(0 -5376.182266 7584.543818)
(0 -4412.076395 4793.616165)
(0 -3842.023725 2374.153924)
(0 -1869.901012 101.2462705)
(0 -59.18653826 45.11415233)
(0 -22.65214118 26.44910436)
(0 -13.37383241 14.94765345)
(0 -7.589319991 8.165808398)
(0 -4.125458461 4.323417792)
(0 -2.148287414 2.226189435)
(0 -1.075453466 1.118891391)
(0 -0.5207129069 0.550389268)
(0 -0.2455582982 0.2651914645)
(0 -0.1134685047 0.1249987957)
(0 -0.05155159779 0.05747532958)
(0 -0.02303144139 0.02568990291)
(0 -0.01009218835 0.01112440176)
(0 -0.004319671425 0.004653945449)
(0 -0.001798152032 0.001877342601)
(0 -0.0007252487618 0.0007293385192)
(0 -0.0002826402126 0.0002727392915)
(0 -0.0001062428249 9.817111859e-05)
(0 -3.848414198e-05 3.402333708e-05)
(0 -1.3428578e-05 1.135880594e-05)
(0 -4.514215035e-06 3.65381779e-06)
(0 -1.464378794e-06 1.133188911e-06)
(0 -4.59280087e-07 3.400837283e-07)
(0 -1.370311079e-07 9.844405143e-08)
(0 -3.891645819e-08 2.503452933e-08)
(0 -1.251726466e-08 1.134083002e-08)
(0 -1.835238052e-09 5.364541999e-09)
(0 -6.588034034e-10 5.035140298e-09)
(0 4.235164736e-09 6.023345403e-09)
(0 7.999755613e-09 -7.999755613e-10)
(0 -4.705738596e-10 -2.164639754e-09)
(0 -8.376214701e-09 -4.705738596e-10)
(0 -9.08207549e-09 -4.329279508e-09)
(0 -5.788058473e-09 -8.093870385e-09)
(0 2.352869298e-10 -1.929352824e-09)
(0 9.035018104e-09 -2.305811912e-09)
(0 8.752673788e-09 7.999755613e-10)
(0 4.42339428e-09 5.646886315e-10)
(0 1.74112328e-09 -4.705738596e-11)
(0 0 2.399926684e-09)
(0 -2.305811912e-09 2.305811912e-09)
(0 -6.63509142e-09 2.399926684e-09)
(0 -1637.002806 8726.647464)
(0 -4713.560679 9247.315979)
(0 -7164.466347 9638.288542)
(0 -8364.348163 9045.554639)
(0 -7942.891406 7058.191986)
(0 -6823.071086 4666.399188)
(0 -6097.078828 2399.726287)
(0 -3013.130488 106.5634997)
(0 -96.19907193 49.75732035)
(0 -37.86749785 30.41647976)
(0 -22.7359588 18.09560386)
(0 -13.12101048 10.51121451)
(0 -7.282109423 5.967131149)
(0 -3.894633545 3.310127857)
(0 -2.01569404 1.792060602)
(0 -1.015006616 0.9447072018)
(0 -0.4997096355 0.4834729865)
(0 -0.2412045469 0.2394299085)
(0 -0.1141463444 0.1144025926)
(0 -0.05282846801 0.05261677396)
(0 -0.02381902613 0.02325609359)
(0 -0.0104196974 0.009868920864)
(0 -0.004406974358 0.004019535465)
(0 -0.001797487112 0.001571472604)
(0 -0.000705885118 0.0005900098815)
(0 -0.0002666875705 0.0002128778261)
(0 -9.691652162e-05 7.387214326e-05)
(0 -3.388781181e-05 2.467839903e-05)
(0 -1.140623978e-05 7.942722061e-06)
(0 -3.69809879e-06 2.465948196e-06)
(0 -1.156058801e-06 7.388480169e-07)
(0 -3.478011396e-07 2.150051964e-07)
(0 -9.867933836e-08 5.910407676e-08)
(0 -2.686976738e-08 1.891706916e-08)
(0 -6.493919262e-09 1.049379707e-08)
(0 -8.470329473e-10 5.270427227e-09)
(0 -2.352869298e-09 7.152722666e-09)
(0 -2.776385772e-09 -3.105787473e-09)
(0 5.176312455e-10 -7.952698227e-09)
(0 -5.129255069e-09 -6.588034034e-09)
(0 -9.646764122e-09 -2.729328386e-09)
(0 0 -2.635213614e-09)
(0 3.011672701e-09 -9.411477192e-11)
(0 5.741001087e-09 -4.705738596e-11)
(0 8.752673788e-09 -2.352869298e-10)
(0 3.011672701e-09 4.705738596e-11)
(0 1.788180666e-09 -1.505836351e-09)
(0 1.552893737e-09 0)
(0 -2.352869298e-10 1.882295438e-10)
(0 -8.752673788e-09 5.646886315e-10)
(0 -1339.968467 6011.656271)
(0 -4039.945586 6606.62543)
(0 -6717.743245 7425.294457)
(0 -8986.375845 7854.410789)
(0 -9755.337718 7007.420794)
(0 -9070.542094 4861.539056)
(0 -8401.859414 2549.328052)
(0 -4219.869978 120.5132136)
(0 -135.3335582 60.30623235)
(0 -54.31385767 39.25918127)
(0 -33.27909766 25.11003209)
(0 -19.7177927 15.75256525)
(0 -11.32654511 9.649547847)
(0 -6.323357962 5.742415075)
(0 -3.440874122 3.304089717)
(0 -1.829300522 1.83090061)
(0 -0.9508355915 0.9741658173)
(0 -0.4825388985 0.4966613414)
(0 -0.2383647322 0.2423312128)
(0 -0.1141779404 0.1130936425)
(0 -0.05284004144 0.05048210449)
(0 -0.02355622964 0.02156112471)
(0 -0.01009560034 0.008817157607)
(0 -0.004154774298 0.00345527002)
(0 -0.001641234897 0.001298845639)
(0 -0.0006223806102 0.0004688290658)
(0 -0.0002266836632 0.0001626756421)
(0 -7.935795214e-05 5.432149346e-05)
(0 -2.672661881e-05 1.747560731e-05)
(0 -8.668299895e-06 5.423504904e-06)
(0 -2.710128972e-06 1.624091562e-06)
(0 -8.167750481e-07 4.711385482e-07)
(0 -2.350516429e-07 1.311489347e-07)
(0 -6.112754436e-08 3.524598208e-08)
(0 -1.552893737e-08 1.204669081e-08)
(0 -3.999877806e-09 3.858705649e-09)
(0 -3.999877806e-09 2.682271e-09)
(0 -7.10566528e-09 2.823443158e-10)
(0 -4.046935192e-09 -4.611623824e-09)
(0 -3.152844859e-09 -7.764468683e-09)
(0 -5.176312455e-09 -3.388131789e-09)
(0 -3.105787473e-09 -9.411477192e-11)
(0 2.776385772e-09 -1.647008509e-09)
(0 8.940903332e-09 1.176434649e-09)
(0 8.84678856e-09 1.411721579e-10)
(0 3.105787473e-09 1.882295438e-10)
(0 1.694065895e-09 -1.411721579e-10)
(0 1.694065895e-09 -1.317606807e-09)
(0 -1.694065895e-09 0)
(0 -7.388009595e-09 -1.97641021e-09)
(0 -1042.033648 4749.293987)
(0 -3299.922494 5351.029086)
(0 -5916.680988 6249.726871)
(0 -8782.221826 7041.585018)
(0 -10935.76314 7034.783655)
(0 -11281.16383 5257.083396)
(0 -10838.10467 2753.741497)
(0 -5502.152308 146.6719336)
(0 -177.4531043 81.79471857)
(0 -73.06369811 57.71807638)
(0 -46.24257482 39.9527097)
(0 -28.58149472 26.91977574)
(0 -17.29225959 17.5193334)
(0 -10.24009168 10.94557845)
(0 -5.927208505 6.538158795)
(0 -3.344930515 3.72495644)
(0 -1.833948904 2.021776516)
(0 -0.9730391515 1.045121606)
(0 -0.4977140432 0.514697379)
(0 -0.2446775764 0.2416493316)
(0 -0.1153515439 0.1082611734)
(0 -0.05208464419 0.04633248655)
(0 -0.02251282905 0.01896425266)
(0 -0.009315799079 0.007432834391)
(0 -0.003692326214 0.002793054439)
(0 -0.001402857567 0.001007500045)
(0 -0.0005114240469 0.0003492818944)
(0 -0.0001790877996 0.0001165167699)
(0 -6.030432245e-05 3.744323261e-05)
(0 -1.954966159e-05 1.160477489e-05)
(0 -6.108331042e-06 3.473540945e-06)
(0 -1.840696709e-06 1.004439903e-06)
(0 -5.346189619e-07 2.814972828e-07)
(0 -1.459720112e-07 7.37389238e-08)
(0 -3.78811957e-08 1.712888849e-08)
(0 -1.021145275e-08 4.18810735e-09)
(0 -5.929230631e-09 -8.940903332e-10)
(0 -1.002322321e-08 2.352869298e-10)
(0 -7.529181753e-09 -2.635213614e-09)
(0 -3.905763035e-09 -3.152844859e-09)
(0 -1.929352824e-09 -4.329279508e-09)
(0 1.647008509e-09 -9.411477192e-11)
(0 4.235164736e-09 1.176434649e-09)
(0 7.670353911e-09 1.882295438e-09)
(0 7.764468683e-09 4.705738596e-11)
(0 2.729328386e-09 0)
(0 2.823443158e-10 -9.411477192e-11)
(0 1.647008509e-09 -1.647008509e-09)
(0 -8.470329473e-10 -1.694065895e-09)
(0 -6.823320964e-09 -5.646886315e-10)
(0 -738.2333675 4096.489206)
(0 -2539.512702 4715.902795)
(0 -5027.187312 5663.305376)
(0 -8201.319061 6579.131473)
(0 -11539.83934 6982.92679)
(0 -13351.58425 5822.121099)
(0 -13512.27088 3063.143075)
(0 -6891.816756 197.2776152)
(0 -224.2874155 125.4190615)
(0 -96.15586654 95.66599242)
(0 -64.07739831 70.68591829)
(0 -42.15116901 50.11212385)
(0 -27.3007424 33.86884964)
(0 -17.30453256 21.7420542)
(0 -10.66149613 13.23515821)
(0 -6.345682801 7.637588726)
(0 -3.630670425 4.180283269)
(0 -1.989618036 2.172222249)
(0 -1.041837007 1.072975051)
(0 -0.5206141459 0.5044938327)
(0 -0.2481568866 0.2261108185)
(0 -0.1128531503 0.09674084807)
(0 -0.0489952525 0.03956758074)
(0 -0.02032597256 0.01549228362)
(0 -0.008066569242 0.005814684577)
(0 -0.003066153061 0.002094790264)
(0 -0.001117666985 0.0007252816079)
(0 -0.000391196708 0.000241629889)
(0 -0.0001316385668 7.754840742e-05)
(0 -4.263785038e-05 2.400237263e-05)
(0 -1.331055808e-05 7.174133776e-06)
(0 -4.008912825e-06 2.069677949e-06)
(0 -1.165705565e-06 5.772058962e-07)
(0 -3.254959387e-07 1.527012174e-07)
(0 -8.507975381e-08 3.534009685e-08)
(0 -2.197579924e-08 5.317484613e-09)
(0 -7.999755613e-09 -2.023467596e-09)
(0 -8.799731174e-09 1.788180666e-09)
(0 -7.482124367e-09 2.305811912e-09)
(0 -4.799853368e-09 2.682271e-09)
(0 -2.117582368e-09 0)
(0 2.305811912e-09 1.129377263e-09)
(0 4.799853368e-09 2.352869298e-10)
(0 7.858583455e-09 7.529181753e-10)
(0 6.917435736e-09 -1.411721579e-10)
(0 2.917557929e-09 -8.940903332e-10)
(0 9.411477192e-11 0)
(0 9.411477192e-11 -2.352869298e-10)
(0 -6.588034034e-10 -1.552893737e-09)
(0 -5.082197684e-09 -1.270549421e-09)
(0 -422.6200584 3712.903777)
(0 -1733.106323 4338.837309)
(0 -4053.45231 5364.479723)
(0 -7462.600412 6423.060241)
(0 -11692.77351 7061.8618)
(0 -15200.94754 6452.443105)
(0 -16462.94815 3584.449397)
(0 -8439.876321 296.9207413)
(0 -279.0647271 213.483643)
(0 -127.7968414 172.5472288)
(0 -91.79644339 133.0145235)
(0 -65.39856336 97.09478307)
(0 -45.66232924 66.90063507)
(0 -30.87378311 43.47695406)
(0 -20.03167398 26.66395565)
(0 -12.39980545 15.45164142)
(0 -7.299315381 8.474231808)
(0 -4.080347369 4.406032731)
(0 -2.16544246 2.175565847)
(0 -1.091541809 1.021919365)
(0 -0.5231045286 0.4574048404)
(0 -0.238627882 0.1953967776)
(0 -0.1037613935 0.07978678685)
(0 -0.0430686952 0.03118728843)
(0 -0.01708981956 0.01168599472)
(0 -0.006492260631 0.00420316849)
(0 -0.002364584328 0.001453003235)
(0 -0.000826820953 0.0004833519163)
(0 -0.0002779318858 0.0001549085853)
(0 -8.99239823e-05 4.788281957e-05)
(0 -2.804107278e-05 1.429062225e-05)
(0 -8.437530475e-06 4.121756436e-06)
(0 -2.451595694e-06 1.149000193e-06)
(0 -6.878848679e-07 3.091199684e-07)
(0 -1.852649285e-07 7.764468683e-08)
(0 -4.762207459e-08 1.515247828e-08)
(0 -9.458534578e-09 1.223492035e-09)
(0 -5.646886315e-09 1.929352824e-09)
(0 -6.63509142e-09 4.046935192e-09)
(0 -6.258632332e-09 2.352869298e-09)
(0 -3.482246561e-09 3.435189175e-09)
(0 1.929352824e-09 2.117582368e-09)
(0 3.952820421e-09 3.764590877e-10)
(0 7.199780052e-09 4.705738596e-10)
(0 6.070402789e-09 -4.705738596e-11)
(0 2.964615315e-09 -2.823443158e-10)
(0 8.940903332e-10 0)
(0 1.411721579e-10 -9.411477192e-11)
(0 -1.929352824e-09 -1.411721579e-10)
(0 -3.999877806e-09 -1.317606807e-09)
(0 -112.2998352 3520.646678)
(0 -887.9367553 4081.366086)
(0 -2942.96438 5169.552808)
(0 -6503.936985 6439.436595)
(0 -11510.45648 7396.566042)
(0 -16828.99666 7230.492099)
(0 -19667.79324 4563.723677)
(0 -10262.78251 492.4864337)
(0 -348.6609279 387.8893096)
(0 -176.624986 324.8991299)
(0 -139.529844 256.2595506)
(0 -108.2650574 189.6116422)
(0 -80.91857141 131.6046505)
(0 -57.54121199 85.81072443)
(0 -38.68680877 52.67170405)
(0 -24.53540664 30.50349606)
(0 -14.67627911 16.70385565)
(0 -8.288283997 8.667482218)
(0 -4.425950373 4.270115979)
(0 -2.238775152 2.001087527)
(0 -1.074679474 0.8935799033)
(0 -0.4904712039 0.3808548807)
(0 -0.2132047418 0.1551756373)
(0 -0.08842676474 0.06052980714)
(0 -0.03505068908 0.02263645901)
(0 -0.01329914459 0.008126866177)
(0 -0.004837483606 0.002804579498)
(0 -0.001689291311 0.000931472203)
(0 -0.0005671077105 0.0002980800233)
(0 -0.0001832558605 9.200909507e-05)
(0 -5.707162121e-05 2.742245638e-05)
(0 -1.715053489e-05 7.900276299e-06)
(0 -4.978294975e-06 2.201344515e-06)
(0 -1.396804387e-06 5.933465796e-07)
(0 -3.790943013e-07 1.528423896e-07)
(0 -9.834993665e-08 3.741062184e-08)
(0 -2.117582368e-08 8.329157315e-09)
(0 -6.117460175e-09 -3.294017017e-10)
(0 -6.917435736e-09 1.176434649e-09)
(0 -5.458656771e-09 -4.705738596e-11)
(0 -2.352869298e-09 2.588156228e-09)
(0 -7.058607894e-10 1.364664193e-09)
(0 3.105787473e-09 -1.788180666e-09)
(0 7.482124367e-09 -1.647008509e-09)
(0 6.164517561e-09 -4.705738596e-11)
(0 2.964615315e-09 -1.835238052e-09)
(0 2.823443158e-10 -4.705738596e-11)
(0 -4.705738596e-11 -2.352869298e-10)
(0 -1.882295438e-09 -9.411477192e-11)
(0 -3.670476105e-09 1.552893737e-09)
(0 138.09935 3577.05568)
(0 -84.20019338 3948.74126)
(0 -1695.381801 5000.542667)
(0 -5235.587178 6486.981779)
(0 -10901.71801 7855.876734)
(0 -18033.78991 8215.744635)
(0 -23200.95382 6010.954218)
(0 -12615.71069 858.972083)
(0 -446.6520309 723.6687805)
(0 -259.4266004 618.7281118)
(0 -227.0839311 492.9561044)
(0 -190.0534635 366.0953542)
(0 -149.463247 254.0962894)
(0 -109.8067295 165.3453628)
(0 -75.33890234 101.1833887)
(0 -48.36765386 58.39434674)
(0 -29.13532923 31.86226197)
(0 -16.51408704 16.47474986)
(0 -8.831837151 8.089094067)
(0 -4.468077885 3.778754376)
(0 -2.143337175 1.682417242)
(0 -0.9770321481 0.7151107645)
(0 -0.4240864669 0.2906317236)
(0 -0.1756078735 0.1131048287)
(0 -0.06949276057 0.04220782159)
(0 -0.0263241401 0.01512354613)
(0 -0.009559978255 0.00520967873)
(0 -0.003333320522 0.00172737763)
(0 -0.001117394947 0.0005519251626)
(0 -0.0003605814551 0.0001701225676)
(0 -0.0001121499386 5.063821774e-05)
(0 -3.365859528e-05 1.457056664e-05)
(0 -9.758572471e-06 4.056817243e-06)
(0 -2.736386993e-06 1.092954846e-06)
(0 -7.412008862e-07 2.845560129e-07)
(0 -1.921353069e-07 7.110371018e-08)
(0 -4.733973027e-08 1.524659305e-08)
(0 -1.270549421e-08 -9.411477192e-10)
(0 -6.39980449e-09 -9.882051051e-10)
(0 -4.799853368e-09 -6.117460175e-10)
(0 -2.023467596e-09 9.411477192e-11)
(0 -2.541098842e-09 5.646886315e-10)
(0 8.940903332e-10 -1.458778965e-09)
(0 8.940903332e-09 -3.529303947e-09)
(0 5.882173245e-09 -9.882051051e-10)
(0 2.964615315e-09 -2.870500543e-09)
(0 2.541098842e-09 4.705738596e-11)
(0 0 1.882295438e-10)
(0 -4.705738596e-11 4.705738596e-11)
(0 -5.411599385e-09 -1.882295438e-10)
(0 259.3857453 3883.434131)
(0 535.5502316 4036.186771)
(0 -404.7238606 4872.439118)
(0 -3648.602917 6494.287595)
(0 -9781.693621 8313.249688)
(0 -18673.91917 9320.043759)
(0 -27024.56579 7746.774859)
(0 -15550.06795 1522.288355)
(0 -588.9048991 1354.312779)
(0 -407.3376621 1169.866898)
(0 -392.1626016 933.4362534)
(0 -347.1248724 691.2795061)
(0 -281.6685628 477.5348514)
(0 -210.4541127 309.0586059)
(0 -145.6378249 188.0902661)
(0 -93.85653341 107.9780375)
(0 -56.595876 58.62828865)
(0 -32.0614519 30.17825622)
(0 -17.12194586 14.75702454)
(0 -8.645451977 6.868161367)
(0 -4.138323085 3.047712077)
(0 -1.882256722 1.291523481)
(0 -0.8152106776 0.523463303)
(0 -0.3368506668 0.2032123629)
(0 -0.1330319716 0.0756635122)
(0 -0.0502972875 0.0270557281)
(0 -0.0182336521 0.009302631623)
(0 -0.006347044832 0.003079213038)
(0 -0.00212436282 0.0009823161086)
(0 -0.0006845428524 0.0003023487399)
(0 -0.000212623528 8.987876015e-05)
(0 -6.373198244e-05 2.583050501e-05)
(0 -1.845590677e-05 7.182133532e-06)
(0 -5.169065618e-06 1.933635046e-06)
(0 -1.400945437e-06 5.039375462e-07)
(0 -3.677064139e-07 1.250314745e-07)
(0 -9.31736242e-08 2.81403168e-08)
(0 -2.230520094e-08 2.823443158e-09)
(0 -6.588034034e-09 -1.035262491e-09)
(0 -4.376336894e-09 -6.117460175e-10)
(0 -1.223492035e-09 6.588034034e-10)
(0 -2.164639754e-09 3.294017017e-10)
(0 -9.411477192e-10 1.411721579e-10)
(0 7.905640841e-09 -3.341074403e-09)
(0 6.87037835e-09 -2.682271e-09)
(0 3.952820421e-09 -5.176312455e-10)
(0 3.246959631e-09 0)
(0 0 9.411477192e-11)
(0 -2.352869298e-09 -4.705738596e-11)
(0 -3.435189175e-09 -1.835238052e-09)
(0 290.8519895 4311.281609)
(0 904.8047934 4384.960546)
(0 762.7190235 4865.043627)
(0 -1794.776608 6474.663881)
(0 -8075.961846 8749.837589)
(0 -18600.26474 10551.95393)
(0 -30998.70922 9759.522205)
(0 -19008.17277 2725.139046)
(0 -799.0734873 2516.222706)
(0 -680.3031257 2174.707346)
(0 -705.6713232 1725.748435)
(0 -645.9548655 1268.2994)
(0 -531.6841473 869.0488557)
(0 -399.2513148 558.0579558)
(0 -276.4194707 337.1855323)
(0 -177.8296313 192.3134202)
(0 -106.9351105 103.8146393)
(0 -60.38535115 53.16269425)
(0 -32.141932 25.87787062)
(0 -16.17739035 11.99533727)
(0 -7.719975061 5.303773107)
(0 -3.501280922 2.240388404)
(0 -1.512397585 0.9054521507)
(0 -0.6234076645 0.3506034192)
(0 -0.2456493954 0.1302419204)
(0 -0.09268502063 0.04647492775)
(0 -0.03353649337 0.01594942612)
(0 -0.01165363594 0.005270260315)
(0 -0.003894259198 0.001678654224)
(0 -0.001253018803 0.0005159329915)
(0 -0.0003886682676 0.0001531682149)
(0 -0.0001163552219 4.396439809e-05)
(0 -3.365544244e-05 1.221021522e-05)
(0 -9.414582979e-06 3.284087909e-06)
(0 -2.549804458e-06 8.546562438e-07)
(0 -6.678854789e-07 2.152875408e-07)
(0 -1.694536468e-07 5.063374729e-08)
(0 -4.202224566e-08 9.08207549e-09)
(0 -9.834993665e-09 -1.694065895e-09)
(0 -3.105787473e-09 -8.940903332e-10)
(0 -1.035262491e-09 7.999755613e-10)
(0 -3.105787473e-09 4.235164736e-10)
(0 -2.823443158e-09 -9.411477192e-11)
(0 6.070402789e-09 -1.599951123e-09)
(0 8.705616402e-09 -2.070524982e-09)
(0 5.788058473e-09 4.705738596e-10)
(0 3.105787473e-09 1.411721579e-10)
(0 -4.705738596e-11 1.411721579e-10)
(0 -1.882295438e-09 9.411477192e-11)
(0 -3.670476105e-09 2.352869298e-10)
(0 333.0646823 4768.7926)
(0 1089.31225 4839.597548)
(0 1684.979474 5142.979719)
(0 236.1910457 6485.19198)
(0 -5704.403567 9200.803638)
(0 -17664.23456 12020.25782)
(0 -34851.38068 12341.18066)
(0 -22793.36745 4896.768421)
(0 -1139.336599 4608.77203)
(0 -1197.811933 3948.880432)
(0 -1298.570547 3098.157609)
(0 -1203.824451 2250.744815)
(0 -991.9100075 1525.726299)
(0 -742.3174361 970.3455962)
(0 -511.3823605 581.3443896)
(0 -327.2274264 329.1247956)
(0 -195.7466019 176.5280728)
(0 -109.9982206 89.8937617)
(0 -58.28930283 43.54420577)
(0 -29.21954949 20.0983154)
(0 -13.89327195 8.853274745)
(0 -6.280577679 3.727407039)
(0 -2.704995662 1.50202684)
(0 -1.112060897 0.5800924977)
(0 -0.4371604631 0.2149913238)
(0 -0.1645897817 0.07655634187)
(0 -0.05943831964 0.02622339343)
(0 -0.02061781678 0.008650364537)
(0 -0.006878690096 0.002750988665)
(0 -0.002210028909 0.0008443152891)
(0 -0.0006845920274 0.0002503321643)
(0 -0.0002046899822 7.176924279e-05)
(0 -5.913626402e-05 1.991586217e-05)
(0 -1.65246246e-05 5.353342341e-06)
(0 -4.469651691e-06 1.392569223e-06)
(0 -1.171775968e-06 3.5175396e-07)
(0 -2.994732042e-07 8.282099929e-08)
(0 -7.458595674e-08 1.703477372e-08)
(0 -1.656419986e-08 1.552893737e-09)
(0 -1.929352824e-09 -5.176312455e-10)
(0 4.705738596e-11 0)
(0 -3.058730087e-09 -4.705738596e-10)
(0 -2.870500543e-09 0)
(0 5.976288017e-09 -4.705738596e-11)
(0 8.893845946e-09 -1.882295438e-10)
(0 6.164517561e-09 9.411477192e-11)
(0 2.917557929e-09 0)
(0 0 1.882295438e-10)
(0 -2.305811912e-09 0)
(0 -3.764590877e-09 -2.352869298e-10)
(0 361.6569378 5249.309558)
(0 1278.991913 5315.160288)
(0 2408.313455 5586.791011)
(0 2263.04731 6601.945304)
(0 -2540.896009 9664.92692)
(0 -15459.88772 13827.40128)
(0 -38122.19862 15994.36967)
(0 -26740.58139 8740.947995)
(0 -1746.961476 8269.100318)
(0 -2190.917547 6966.397496)
(0 -2403.80694 5376.569473)
(0 -2218.386175 3848.773662)
(0 -1812.083366 2575.719204)
(0 -1343.633224 1620.176679)
(0 -917.6402713 961.5706935)
(0 -582.6459481 540.0310122)
(0 -346.1661444 287.6655493)
(0 -193.3692182 145.627533)
(0 -101.9373783 70.18405805)
(0 -50.86832137 32.25209832)
(0 -24.09088342 14.1527301)
(0 -10.85252883 5.938666648)
(0 -4.659712126 2.386056321)
(0 -1.91044318 0.9191133296)
(0 -0.7491855512 0.3398499077)
(0 -0.281452951 0.1207671699)
(0 -0.1014424707 0.04129046548)
(0 -0.03512604066 0.01359776455)
(0 -0.01170030845 0.004317796377)
(0 -0.003753675351 0.001323356561)
(0 -0.001161214314 0.000391867464)
(0 -0.0003467716181 0.0001122168071)
(0 -0.0001000713429 3.110653207e-05)
(0 -2.793787593e-05 8.352356606e-06)
(0 -7.551345782e-06 2.172780682e-06)
(0 -1.977586645e-06 5.474656282e-07)
(0 -5.042198905e-07 1.341606074e-07)
(0 -1.232432938e-07 3.214019461e-08)
(0 -2.738739863e-08 7.435066981e-09)
(0 -4.65868121e-09 1.505836351e-09)
(0 -9.882051051e-10 1.882295438e-10)
(0 -3.058730087e-09 -1.317606807e-09)
(0 -2.44698407e-09 9.411477192e-11)
(0 5.929230631e-09 -3.294017017e-10)
(0 8.752673788e-09 4.705738596e-11)
(0 5.976288017e-09 -5.176312455e-10)
(0 3.246959631e-09 -1.411721579e-10)
(0 0 -1.411721579e-10)
(0 -2.352869298e-09 -9.411477192e-11)
(0 -3.435189175e-09 -2.352869298e-10)
(0 398.915412 5758.223069)
(0 1426.793702 5844.434264)
(0 2971.76449 6100.157054)
(0 4314.326955 6971.384174)
(0 1521.052413 9991.999918)
(0 -11334.79181 15877.78753)
(0 -39937.83397 21014.86683)
(0 -30518.6368 15321.42033)
(0 -2913.887098 14442.72956)
(0 -4090.342778 11878.90043)
(0 -4416.194382 8981.31453)
(0 -4004.674721 6319.030988)
(0 -3220.50699 4168.298465)
(0 -2356.465946 2590.550053)
(0 -1591.528028 1522.07294)
(0 -1001.132571 847.6148937)
(0 -590.1500812 448.2980527)
(0 -327.4797118 225.5750745)
(0 -171.6647375 108.1533425)
(0 -85.25087744 49.48008523)
(0 -40.20670363 21.62946693)
(0 -18.04725146 9.045765314)
(0 -7.724548981 3.623843427)
(0 -3.158267311 1.39233081)
(0 -1.235506623 0.5136573418)
(0 -0.463149224 0.1821616425)
(0 -0.1666077249 0.06216874761)
(0 -0.05759048592 0.02044011453)
(0 -0.01915309818 0.006480963329)
(0 -0.006135957727 0.00198369347)
(0 -0.001895731781 0.0005866862654)
(0 -0.000565450867 0.0001678188262)
(0 -0.0001630006675 4.646785103e-05)
(0 -4.545837598e-05 1.246606623e-05)
(0 -1.227468384e-05 3.245030278e-06)
(0 -3.210396042e-06 8.190338026e-07)
(0 -8.147045231e-07 2.046055141e-07)
(0 -2.013585545e-07 5.063374729e-08)
(0 -4.729267289e-08 1.185846126e-08)
(0 -9.129132876e-09 1.929352824e-09)
(0 -2.823443158e-09 0)
(0 -3.058730087e-09 -2.258754526e-09)
(0 -1.882295438e-09 0)
(0 5.929230631e-09 0)
(0 8.752673788e-09 -4.705738596e-10)
(0 5.976288017e-09 0)
(0 3.246959631e-09 0)
(0 0 0)
(0 -2.352869298e-09 0)
(0 -3.435189175e-09 0)
(0 447.8681334 6294.701535)
(0 1620.925898 6403.975623)
(0 3535.263365 6742.035804)
(0 6154.890174 7543.938596)
(0 6365.507351 10154.62572)
(0 -4437.020807 17739.48383)
(0 -38678.56582 27318.95289)
(0 -33312.71866 26022.67608)
(0 -5189.481382 24389.85322)
(0 -7652.332581 19474.76034)
(0 -7963.676379 14378.79409)
(0 -7031.40224 9924.560877)
(0 -5540.564301 6445.547958)
(0 -3989.858749 3955.166072)
(0 -2660.575431 2299.619096)
(0 -1656.420835 1269.533745)
(0 -968.2059636 666.5923997)
(0 -533.5139285 333.3754657)
(0 -278.0323675 159.0146465)
(0 -137.3921969 72.42898765)
(0 -64.52520334 31.54153463)
(0 -28.85815233 13.14800428)
(0 -12.31314663 5.252254002)
(0 -5.020629265 2.012954673)
(0 -1.959354719 0.7409841806)
(0 -0.7329415452 0.2622675848)
(0 -0.2631639986 0.08935191902)
(0 -0.09081382495 0.02933171321)
(0 -0.03015672951 0.009287160989)
(0 -0.009647952415 0.002838996894)
(0 -0.002977088958 0.0008386747555)
(0 -0.0008869900325 0.0002396444908)
(0 -0.0002554241029 6.629298656e-05)
(0 -7.116074374e-05 1.776999832e-05)
(0 -1.919833115e-05 4.621882334e-06)
(0 -5.018011409e-06 1.166882e-06)
(0 -1.272619946e-06 2.891676367e-07)
(0 -3.159903467e-07 7.011550508e-08)
(0 -7.604473571e-08 1.755240496e-08)
(0 -1.651714247e-08 3.341074403e-09)
(0 -5.223369841e-09 -7.529181753e-10)
(0 -3.058730087e-09 -1.647008509e-09)
(0 -1.882295438e-10 0)
(0 5.364541999e-09 0)
(0 8.84678856e-09 -1.176434649e-09)
(0 6.446861876e-09 0)
(0 3.246959631e-09 0)
(0 0 0)
(0 -2.352869298e-09 0)
(0 -3.435189175e-09 0)
(0 508.1895002 6839.719882)
(0 1874.127972 6986.227532)
(0 4111.727464 7444.12063)
(0 7726.91687 8383.333007)
(0 11716.59765 10689.82186)
(0 5829.535367 18498.81898)
(0 -31654.64172 34297.90541)
(0 -33447.73647 42241.92161)
(0 -9461.802833 39529.04246)
(0 -14101.40191 30523.39363)
(0 -13966.39385 21960.53958)
(0 -11937.92085 14852.12312)
(0 -9189.901796 9490.460183)
(0 -6502.394808 5747.926235)
(0 -4277.160354 3306.591571)
(0 -2634.159267 1809.569329)
(0 -1526.308361 943.3022529)
(0 -835.057465 468.9245326)
(0 -432.6112156 222.5364106)
(0 -212.7239893 100.9267638)
(0 -99.487687 43.79041396)
(0 -44.33653209 18.19621237)
(0 -18.85959859 7.248948815)
(0 -7.669537132 2.771553312)
(0 -2.986193711 1.01808639)
(0 -1.114781486 0.3596771926)
(0 -0.3995435965 0.1223360101)
(0 -0.137655244 0.04010015191)
(0 -0.0456458144 0.0126798645)
(0 -0.01458444396 0.003871463565)
(0 -0.004495084278 0.001142432958)
(0 -0.001337832542 0.0003261154021)
(0 -0.00038487516 9.013315238e-05)
(0 -0.0001071294802 2.414029782e-05)
(0 -2.887784721e-05 6.271902515e-06)
(0 -7.54311074e-06 1.581551685e-06)
(0 -1.911471018e-06 3.863411387e-07)
(0 -4.729737863e-07 9.345596851e-08)
(0 -1.140200462e-07 2.249343049e-08)
(0 -2.738739863e-08 5.929230631e-09)
(0 -7.764468683e-09 1.364664193e-09)
(0 -2.399926684e-09 5.176312455e-10)
(0 -2.823443158e-10 9.411477192e-11)
(0 4.705738596e-09 9.411477192e-11)
(0 8.84678856e-09 -2.823443158e-09)
(0 7.10566528e-09 1.882295438e-10)
(0 3.246959631e-09 -9.411477192e-11)
(0 0 -9.411477192e-11)
(0 -2.352869298e-09 9.411477192e-11)
(0 -3.435189175e-09 1.411721579e-10)
(0 594.3757831 7344.762782)
(0 2225.326646 7554.414002)
(0 4932.368839 8170.782979)
(0 9400.591399 9507.97515)
(0 16480.99332 12012.94245)
(0 19171.06274 18851.99414)
(0 -14935.46319 40699.64328)
(0 -28081.58161 64727.05797)
(0 -16908.00936 61000.21801)
(0 -25220.83546 45456.86539)
(0 -23634.94689 31834.69107)
(0 -19501.48163 21085.09726)
(0 -14644.76119 13253.65728)
(0 -10173.72736 7922.637005)
(0 -6598.932337 4509.763252)
(0 -4019.710153 2446.897702)
(0 -2308.85076 1266.555328)
(0 -1254.279771 625.9401171)
(0 -646.0301363 295.5992861)
(0 -316.1381936 133.5100717)
(0 -147.2557548 57.72455985)
(0 -65.39961747 23.91413508)
(0 -27.73780568 9.502096184)
(0 -11.25149169 3.624812601)
(0 -4.371230838 1.328884006)
(0 -1.628691925 0.4686596236)
(0 -0.5827410394 0.1591574486)
(0 -0.2004699706 0.05209778497)
(0 -0.0663854179 0.01645319351)
(0 -0.02118538395 0.005017944682)
(0 -0.006522437073 0.001479251092)
(0 -0.001939289885 0.0004218732297)
(0 -0.0005573992071 0.0001164991704)
(0 -0.0001550218524 3.11783887e-05)
(0 -4.175712435e-05 8.094058614e-06)
(0 -1.090357279e-05 2.040455313e-06)
(0 -2.760809777e-06 4.979142008e-07)
(0 -6.797909976e-07 1.193845882e-07)
(0 -1.635244162e-07 2.799914465e-08)
(0 -3.778708092e-08 6.917435736e-09)
(0 -1.068202661e-08 1.223492035e-09)
(0 -4.282222122e-09 -1.882295438e-10)
(0 -5.176312455e-10 -4.705738596e-11)
(0 2.494041456e-09 9.411477192e-11)
(0 8.893845946e-09 -2.494041456e-09)
(0 9.176190262e-09 -9.411477192e-11)
(0 2.964615315e-09 1.411721579e-10)
(0 1.882295438e-10 1.599951123e-09)
(0 -2.117582368e-09 0)
(0 -3.670476105e-09 2.352869298e-10)
(0 717.8407198 7737.621786)
(0 2700.148168 8027.617569)
(0 6065.288612 8846.101511)
(0 11569.07635 10685.24033)
(0 21060.61663 14195.52609)
(0 34516.23619 21329.50989)
(0 14220.42211 44664.58616)
(0 -13147.16174 92720.30006)
(0 -28731.99541 88882.3365)
(0 -43266.92885 63891.83775)
(0 -38338.16198 43551.68241)
(0 -30518.95464 28253.26526)
(0 -22352.36205 17474.27755)
(0 -15246.28884 10312.78957)
(0 -9752.899657 5810.527714)
(0 -5877.367191 3126.688868)
(0 -3347.265946 1607.529811)
(0 -1806.013507 790.0391529)
(0 -925.041261 371.3694714)
(0 -450.5987155 167.0808802)
(0 -209.0836236 72.00160979)
(0 -92.55899575 29.74503029)
(0 -39.14892107 11.79038056)
(0 -15.84274931 4.488306991)
(0 -6.142346688 1.642435546)
(0 -2.284508043 0.5783081972)
(0 -0.8161054351 0.1961146353)
(0 -0.280359499 0.06411380687)
(0 -0.09272565464 0.02022504515)
(0 -0.02955838642 0.006161995896)
(0 -0.009091155683 0.001814830582)
(0 -0.002700584511 0.0005171440604)
(0 -0.0007755700951 0.0001426962995)
(0 -0.000215534592 3.816081068e-05)
(0 -5.801568648e-05 9.898803481e-06)
(0 -1.513930221e-05 2.495688464e-06)
(0 -3.832494685e-06 6.106166402e-07)
(0 -9.428888425e-07 1.461131834e-07)
(0 -2.264871986e-07 3.425777698e-08)
(0 -5.411599385e-08 7.576239139e-09)
(0 -1.477601919e-08 -1.176434649e-09)
(0 -3.717533491e-09 -5.176312455e-10)
(0 0 -9.411477192e-11)
(0 2.21169714e-09 -4.705738596e-11)
(0 8.658559016e-09 -2.588156228e-09)
(0 9.740878893e-09 -1.411721579e-09)
(0 4.89396814e-09 -1.223492035e-09)
(0 -4.705738596e-11 0)
(0 -3.764590877e-09 9.411477192e-11)
(0 -3.670476105e-09 3.294017017e-10)
(0 884.3715656 7930.694852)
(0 3333.806371 8300.395114)
(0 7589.991602 9342.285135)
(0 14750.01598 11685.80449)
(0 27125.26288 16544.8433)
(0 49640.12282 25636.30405)
(0 56455.32698 47956.19576)
(0 16136.16873 123275.9935)
(0 -45736.47166 121158.7033)