/*--------------------------------*- C++ -*----------------------------------*\
  =========                 |
  \\      /  F ield         | OpenFOAM: The Open Source CFD Toolbox
   \\    /   O peration     | Website:  https://openfoam.org
    \\  /    A nd           | Version:  6
     \\/     M anipulation  |
\*---------------------------------------------------------------------------*/
FoamFile
{
    version     2.0;
    format      ascii;
    class       volVectorField;
    location    "0.11";
    object      Marangoni;
}
// * * * * * * * * * * * * * * * * * * * * * * * * * * * * * * * * * * * * * //

dimensions      [1 -2 -2 0 0 0 0];

internalField   nonuniform List<vector> 
2500
(
(-0 5.395886459e-12 -9.541502146e-11)
(-0 1.464422216e-11 -9.820665125e-11)
(-0 2.054208599e-11 -1.056203572e-10)
(-0 2.071502712e-11 -9.974905508e-11)
(-0 1.934897993e-11 -8.382665615e-11)
(-0 1.485865313e-11 -4.931584287e-11)
(-0 2.807764235e-07 -5.206199086e-07)
(-0 5.208649389e-06 -8.805190042)
(-0 1.693877106e-07 -3.676362752)
(-0 1.678029014e-09 -5.486536876e-09)
(-0 8.712330153e-15 -2.697381724e-14)
(-0 5.342866391e-15 -1.558444603e-14)
(-0 4.329502776e-15 -1.193924253e-14)
(-0 2.495970014e-15 -6.569869395e-15)
(-0 1.31266158e-15 -3.339523614e-15)
(-0 3.147467698e-16 -7.837853205e-16)
(-0 3.340298563e-16 -8.223556081e-16)
(-0 6.814885106e-17 -1.667328462e-16)
(-0 4.930925822e-17 -1.198489045e-16)
(-0 1.668787211e-17 -4.009831173e-17)
(-0 8.897949995e-18 -2.098077021e-17)
(-0 3.653572651e-18 -8.388279686e-18)
(-0 2.210248323e-18 -4.908001203e-18)
(-0 9.965341866e-19 -2.129607309e-18)
(-0 3.929903591e-19 -8.056049766e-19)
(-0 9.359394091e-20 -1.837071167e-19)
(-0 2.479507176e-20 -4.656687734e-20)
(-0 1.336742781e-20 -2.402517881e-20)
(-0 2.200767123e-21 -3.789720634e-21)
(-0 1.20376022e-21 -1.972212316e-21)
(-0 2.323686638e-22 -3.538052882e-22)
(-0 8.393077108e-23 -1.258356005e-22)
(-0 2.715615584e-23 -3.491505751e-23)
(-0 1.538846879e-23 3.017346822e-24)
(-0 4.163512796e-25 5.256434905e-24)
(-0 2.73153498e-24 6.737786284e-24)
(-0 -1.13872486e-23 2.18755039e-23)
(-0 -1.218668244e-23 -9.478530785e-24)
(-0 -2.840570491e-25 -1.001301098e-23)
(-0 0 -0)
(-0 0 0)
(-0 0 0)
(-0 0 0)
(-0 -0 0)
(-0 -0 0)
(-0 -0 -0)
(-0 0 -0)
(-0 0 -0)
(-0 0 -0)
(-0 0 -0)
(-0 6.957585258e-12 -5.476967214e-11)
(-0 2.116427524e-11 -6.188481553e-11)
(-0 3.371479653e-11 -6.886659882e-11)
(-0 5.189365444e-11 -8.705477286e-11)
(-0 4.814677481e-11 -6.792573919e-11)
(-0 1.342068617e-11 -1.458097712e-11)
(-0 3.7417547e-07 -2.31357732e-07)
(-0 1.425164366e-05 -8.434078635)
(-0 4.594649473e-07 -3.757265361)
(-0 1.818058453e-09 -2.123121954e-09)
(-0 5.79452771e-14 -6.474409358e-14)
(-0 3.457765916e-14 -3.719105261e-14)
(-0 2.889444314e-14 -3.026939921e-14)
(-0 7.911518588e-15 -8.195230699e-15)
(-0 4.113178703e-15 -4.277725189e-15)
(-0 9.160129933e-16 -9.678961862e-16)
(-0 3.226359791e-16 -3.48333691e-16)
(-0 6.581962888e-17 -7.24914797e-17)
(-0 6.99612043e-17 -7.798622273e-17)
(-0 2.07053644e-17 -2.309193972e-17)
(-0 1.332591914e-17 -1.468703234e-17)
(-0 5.912144252e-18 -6.368923634e-18)
(-0 6.874898309e-18 -7.176879413e-18)
(-0 2.386695352e-18 -2.399890649e-18)
(-0 1.559220709e-18 -1.504432953e-18)
(-0 4.199152423e-19 -3.879677828e-19)
(-0 9.584202645e-20 -8.472282347e-20)
(-0 8.984856317e-20 -7.59912749e-20)
(-0 2.935551874e-20 -2.375717228e-20)
(-0 7.973260825e-21 -6.168970216e-21)
(-0 1.33188968e-21 -9.858588463e-22)
(-0 8.089669838e-22 -5.807037921e-22)
(-0 1.624928771e-22 -1.044456039e-22)
(-0 7.565155612e-23 -6.906070085e-23)
(-0 1.046587086e-23 -3.139761258e-23)
(-0 2.530996686e-24 -2.10267417e-23)
(-0 -1.977178875e-23 -2.843583101e-23)
(-0 -3.475979506e-23 3.271510123e-24)
(-0 1.309438296e-24 6.023416163e-24)
(-0 1.068954335e-23 5.404825291e-25)
(-0 0 0)
(-0 0 0)
(-0 -0 0)
(-0 -0 0)
(-0 -0 -0)
(-0 -0 -0)
(-0 -0 0)
(-0 -0 -0)
(-0 0 -0)
(-0 0 -0)
(-0 4.88180463e-12 -2.603929489e-11)
(-0 6.367751529e-12 -1.249694699e-11)
(-0 3.263319613e-11 -4.390582916e-11)
(-0 3.712443253e-11 -4.014731981e-11)
(-0 1.007526305e-11 -8.952137701e-12)
(-0 2.168422799e-12 -1.482874478e-12)
(-0 2.699063943e-07 -1.062359496e-07)
(-0 2.298365294e-05 -8.87655815)
(-0 7.361701561e-07 -4.143878026)
(-0 1.647090522e-09 -1.322728568e-09)
(-0 1.137594346e-13 -9.050849272e-14)
(-0 5.649692785e-14 -4.524175688e-14)
(-0 4.312821049e-15 -3.532609996e-15)
(-0 1.284465498e-14 -1.091278521e-14)
(-0 8.741809592e-15 -7.769343083e-15)
(-0 6.633728932e-15 -6.172588108e-15)
(-0 2.114636475e-15 -2.045496564e-15)
(-0 1.02687885e-15 -1.019164508e-15)
(-0 5.617479227e-16 -5.629436661e-16)
(-0 2.985995163e-16 -2.973759901e-16)
(-0 9.371359138e-17 -9.149170485e-17)
(-0 2.989624097e-17 -2.831390267e-17)
(-0 1.257192354e-17 -1.146583751e-17)
(-0 8.26830262e-18 -7.228118119e-18)
(-0 2.17418705e-18 -1.817141404e-18)
(-0 5.18550504e-19 -4.13889236e-19)
(-0 3.245152142e-19 -2.473328215e-19)
(-0 7.548678555e-20 -5.496766096e-20)
(-0 4.56049608e-20 -3.175439038e-20)
(-0 1.628278443e-20 -1.085706243e-20)
(-0 4.733486894e-21 -3.025010904e-21)
(-0 1.747439146e-21 -1.080243746e-21)
(-0 4.804011206e-22 -2.880102641e-22)
(-0 1.369237835e-22 -9.683674989e-23)
(-0 3.613182197e-23 -5.83869297e-23)
(-0 4.444135826e-24 -2.59631093e-23)
(-0 8.460869098e-24 -2.607329048e-23)
(-0 1.449138692e-23 1.624034741e-23)
(-0 -2.059813944e-24 3.164623242e-23)
(-0 1.372535185e-23 1.73438537e-23)
(-0 2.494657266e-24 7.023792303e-25)
(-0 -0 0)
(-0 -0 0)
(-0 -0 0)
(-0 -0 0)
(-0 -0 -0)
(-0 -0 0)
(-0 -0 -0)
(-0 0 -0)
(-0 0 -0)
(-0 5.668482485e-12 -2.544148594e-11)
(-0 1.635612135e-11 -2.675137653e-11)
(-0 1.432066356e-11 -1.582742393e-11)
(-0 5.137743546e-11 -4.489561705e-11)
(-0 3.881934411e-11 -2.787755259e-11)
(-0 5.019331197e-12 -2.689605915e-12)
(-0 2.995485914e-07 -9.087908246e-08)
(-0 3.220038857e-05 -10.03735129)
(-0 1.030905435e-06 -5.022108664)
(-0 1.948343248e-09 -1.407860499e-09)
(-0 7.091823162e-14 -5.34877547e-14)
(-0 6.193911756e-14 -4.946277041e-14)
(-0 8.105302267e-14 -6.902562554e-14)
(-0 4.144022479e-14 -3.762031964e-14)
(-0 2.025366775e-14 -1.944322481e-14)
(-0 6.786699606e-15 -6.791227881e-15)
(-0 2.864066374e-15 -2.933896152e-15)
(-0 1.266117204e-15 -1.303028601e-15)
(-0 8.061845503e-17 -8.195305428e-17)
(-0 1.47528552e-16 -1.461172366e-16)
(-0 2.133723961e-16 -2.038376475e-16)
(-0 3.696822841e-17 -3.383502334e-17)
(-0 3.040440825e-17 -2.655244306e-17)
(-0 1.532027324e-17 -1.27400566e-17)
(-0 8.151572091e-18 -6.450557332e-18)
(-0 1.160966769e-18 -8.74472494e-19)
(-0 7.633279196e-19 -5.477473046e-19)
(-0 5.186420732e-19 -3.549893402e-19)
(-0 6.712946024e-20 -4.389031294e-20)
(-0 2.062758049e-20 -1.290497276e-20)
(-0 9.937005082e-21 -5.954196882e-21)
(-0 1.903888895e-21 -1.097948197e-21)
(-0 8.164899052e-22 -4.557420506e-22)
(-0 1.421695497e-22 -8.193194807e-23)
(-0 7.034021655e-23 -5.451901283e-23)
(-0 1.226963271e-23 -1.169223823e-23)
(-0 1.882295378e-23 -1.306534439e-23)
(-0 2.910455425e-23 -7.709815694e-25)
(-0 1.730196178e-23 1.994814416e-23)
(-0 1.125818461e-23 2.806144522e-23)
(-0 9.801046954e-24 6.180840422e-24)
(-0 0 0)
(-0 -0 0)
(-0 -0 -0)
(-0 -0 -0)
(-0 -0 -0)
(-0 -0 0)
(-0 -0 0)
(-0 0 -0)
(-0 0 0)
(-0 4.529226393e-12 -2.064625353e-11)
(-0 2.026632248e-11 -3.285971893e-11)
(-0 7.961324785e-12 -8.406872999e-12)
(-0 3.61180277e-11 -2.894849046e-11)
(-0 5.00220961e-11 -3.216684314e-11)
(-0 2.75625761e-11 -1.28393206e-11)
(-0 8.141287098e-07 -2.068664181e-07)
(-0 4.198932034e-05 -12.21439246)
(-0 1.347848606e-06 -6.811052623)
(-0 5.133485863e-09 -4.054798878e-09)
(-0 5.851097843e-14 -5.053075802e-14)
(-0 1.338374913e-13 -1.26007041e-13)
(-0 7.526836501e-14 -7.623121381e-14)
(-0 1.195034598e-14 -1.277021644e-14)
(-0 1.96779109e-14 -2.170175775e-14)
(-0 1.098202922e-15 -1.222786386e-15)
(-0 6.259916846e-15 -6.900258691e-15)
(-0 2.451459403e-15 -2.632831195e-15)
(-0 1.322832474e-15 -1.367869812e-15)
(-0 3.38336014e-16 -3.341259666e-16)
(-0 1.483148427e-16 -1.391890872e-16)
(-0 4.869431886e-17 -4.331367667e-17)
(-0 3.58362257e-17 -3.018546601e-17)
(-0 1.216014116e-17 -9.701567051e-18)
(-0 6.433292103e-18 -4.86609461e-18)
(-0 2.828710269e-18 -2.031360589e-18)
(-0 1.50746368e-18 -1.029456957e-18)
(-0 7.938486024e-19 -5.164470957e-19)
(-0 3.022352914e-19 -1.876439317e-19)
(-0 7.286009263e-20 -4.324658692e-20)
(-0 2.716736448e-20 -1.544740035e-20)
(-0 5.123944403e-21 -2.795991233e-21)
(-0 4.61658267e-22 -2.430575452e-22)
(-0 3.440507544e-22 -1.736976913e-22)
(-0 3.61353778e-23 -1.628573207e-23)
(-0 4.734291536e-23 -1.959776496e-23)
(-0 2.110956596e-23 3.208654025e-24)
(-0 4.937898083e-23 -1.390957206e-24)
(-0 2.88490081e-23 9.855251214e-24)
(-0 1.608462628e-23 1.317776611e-23)
(-0 3.691023021e-24 8.489352948e-24)
(-0 -1.176398711e-25 6.919992416e-27)
(-0 -0 -0)
(-0 -0 -0)
(-0 -0 -0)
(-0 -0 -0)
(-0 -0 0)
(-0 -0 0)
(-0 0 0)
(-0 0 0)
(-0 5.020697604e-13 -2.785933525e-12)
(-0 1.843453675e-11 -3.422425976e-11)
(-0 2.329839273e-11 -2.62362734e-11)
(-0 7.568362572e-11 -6.069019567e-11)
(-0 1.004019396e-10 -6.07342668e-11)
(-0 1.332199452e-11 -5.807493509e-12)
(-0 1.577110726e-06 -3.577582625e-07)
(-0 5.258811091e-05 -16.42782732)
(-0 1.7043167e-06 -10.44303803)
(-0 1.044191223e-08 -1.039199348e-08)
(-0 2.2335474e-13 -2.462926834e-13)
(-0 2.409128618e-13 -2.863190286e-13)
(-0 2.603154488e-14 -3.228584063e-14)
(-0 3.813220683e-14 -4.790108566e-14)
(-0 3.102521097e-14 -3.850879262e-14)
(-0 1.656705103e-14 -1.993759549e-14)
(-0 8.172366158e-15 -9.408629825e-15)
(-0 4.237384114e-15 -4.625916837e-15)
(-0 2.184318028e-15 -2.249437665e-15)
(-0 1.512722284e-15 -1.465778415e-15)
(-0 3.600959592e-16 -3.28082011e-16)
(-0 1.068101213e-16 -9.155397496e-17)
(-0 1.04756148e-17 -8.459269309e-18)
(-0 1.037911528e-17 -7.910273368e-18)
(-0 1.908201801e-17 -1.375396569e-17)
(-0 7.14305265e-18 -4.879735442e-18)
(-0 1.70479821e-18 -1.106196929e-18)
(-0 6.717156854e-19 -4.148638778e-19)
(-0 4.467516805e-19 -2.631601062e-19)
(-0 1.25256807e-19 -7.050583354e-20)
(-0 4.520402189e-20 -2.436199571e-20)
(-0 1.630052061e-20 -8.415081306e-21)
(-0 4.409252667e-21 -2.183348918e-21)
(-0 4.334423436e-22 -2.033394345e-22)
(-0 7.772016483e-23 -3.230771459e-23)
(-0 4.39143756e-23 -1.067166547e-23)
(-0 5.087924424e-23 1.316874557e-23)
(-0 4.49433963e-23 -8.892543652e-24)
(-0 2.820235842e-23 -8.513919522e-24)
(-0 1.694106047e-23 -9.467063205e-24)
(-0 4.630597738e-24 1.029021719e-25)
(-0 -5.81279363e-25 -2.66419708e-25)
(-0 -0 -0)
(-0 -0 -0)
(-0 -0 0)
(-0 -0 0)
(-0 -0 -0)
(-0 -0 0)
(-0 0 0)
(-0 0 0)
(-0 5.41083168e-14 -4.752887025e-13)
(-0 8.250321356e-12 -2.064764087e-11)
(-0 5.239008925e-11 -6.931029649e-11)
(-0 7.209018594e-11 -6.203171048e-11)
(-0 2.491680847e-10 -1.504645678e-10)
(-0 1.975556665e-10 -8.385468511e-11)
(-0 2.271799756e-06 -4.95217326e-07)
(-0 6.439901296e-05 -24.72586483)
(-0 2.121447604e-06 -17.77562305)
(-0 1.578217222e-08 -2.132103458e-08)
(-0 6.586811152e-13 -9.541277574e-13)
(-0 2.074935945e-13 -3.0797983e-13)
(-0 8.487174411e-14 -1.243229237e-13)
(-0 6.638135872e-14 -9.346542043e-14)
(-0 6.419644512e-14 -8.544125411e-14)
(-0 2.744973686e-14 -3.420236102e-14)
(-0 2.036490883e-14 -2.364090204e-14)
(-0 1.336856219e-14 -1.443448714e-14)
(-0 3.447280516e-15 -3.463134925e-15)
(-0 1.872482388e-15 -1.752917176e-15)
(-0 4.380151708e-16 -3.829733334e-16)
(-0 5.277665026e-16 -4.321202525e-16)
(-0 9.076636512e-17 -6.978886409e-17)
(-0 3.049797638e-17 -2.208270974e-17)
(-0 4.875742399e-17 -3.333756633e-17)
(-0 1.831451642e-17 -1.185607139e-17)
(-0 9.774425393e-18 -6.005748244e-18)
(-0 1.75721681e-18 -1.027167232e-18)
(-0 1.113922955e-18 -6.208062533e-19)
(-0 2.296057527e-19 -1.222501303e-19)
(-0 7.959477521e-20 -4.056077987e-20)
(-0 2.503375073e-20 -1.222775152e-20)
(-0 6.639750024e-21 -3.11139467e-21)
(-0 2.416627432e-21 -1.08599593e-21)
(-0 4.22806252e-22 -1.771317487e-22)
(-0 2.110168067e-22 -6.691288405e-23)
(-0 2.78889431e-23 -3.625562603e-24)
(-0 2.396406462e-23 -8.18772208e-24)
(-0 3.974258435e-23 -2.424015783e-23)
(-0 2.784181026e-23 -1.067618288e-23)
(-0 7.136242179e-24 -6.945942388e-24)
(-0 -1.937597877e-24 -2.228237558e-24)
(-0 -0 -0)
(-0 -0 -0)
(-0 -0 0)
(-0 -0 0)
(-0 -0 -0)
(-0 -0 0)
(-0 0 0)
(-0 0 0)
(-0 4.458438905e-14 -1.397305215e-12)
(-0 1.203670434e-13 -5.530034858e-13)
(-0 4.399966895e-11 -7.726474371e-11)
(-0 1.372304015e-10 -1.358510389e-10)
(-0 1.459880847e-10 -9.381275148e-11)
(-0 4.621406606e-10 -1.985812708e-10)
(-0 3.313306462e-06 -7.702660773e-07)
(-0 7.831321198e-05 -41.01309917)
(-0 2.639425701e-06 -32.29873162)
(-0 2.526100825e-08 -4.651317679e-08)
(-0 6.419483827e-13 -1.178705702e-12)
(-0 1.068634912e-13 -1.871221018e-13)
(-0 6.705374177e-14 -1.090394441e-13)
(-0 1.344829984e-13 -2.00530159e-13)
(-0 6.305239709e-14 -8.583678791e-14)
(-0 4.938151174e-14 -6.138788361e-14)
(-0 4.175057537e-14 -4.751465868e-14)
(-0 2.252077653e-14 -2.354925768e-14)
(-0 2.022844355e-14 -1.95146815e-14)
(-0 6.752802939e-15 -6.035391495e-15)
(-0 2.644913892e-15 -2.199031283e-15)
(-0 3.84613766e-16 -2.986316556e-16)
(-0 5.091634665e-16 -3.705514187e-16)
(-0 3.20091305e-16 -2.190905199e-16)
(-0 1.219092137e-17 -7.872492325e-18)
(-0 3.426630312e-17 -2.093775507e-17)
(-0 1.11026053e-17 -6.436300932e-18)
(-0 1.562210659e-18 -8.613267476e-19)
(-0 1.537357082e-18 -8.07987743e-19)
(-0 5.966050563e-19 -2.995180452e-19)
(-0 1.283011838e-19 -6.16424815e-20)
(-0 4.335641572e-20 -1.996996432e-20)
(-0 2.110674669e-20 -9.332705272e-21)
(-0 3.40439614e-21 -1.44594081e-21)
(-0 1.304018171e-21 -5.258688722e-22)
(-0 3.791541149e-22 -1.438925429e-22)
(-0 4.168703004e-23 -1.641368521e-23)
(-0 2.292212888e-23 1.586916615e-24)
(-0 4.041212058e-23 -6.82637172e-24)
(-0 2.844981882e-23 4.947794578e-25)
(-0 4.699739736e-24 -5.16971371e-24)
(-0 1.816498009e-25 -3.632996019e-25)
(-0 -0 0)
(-0 -0 0)
(-0 -0 0)
(-0 -0 0)
(-0 -0 0)
(-0 0 0)
(-0 0 0)
(-0 0 -0)
(-0 -7.871926245e-14 -2.036850488e-12)
(-0 1.297877265e-14 -6.08229714e-13)
(-0 2.32559594e-12 -6.856951007e-12)
(-0 1.323765992e-10 -1.640030666e-10)
(-0 2.414159558e-10 -1.739789418e-10)
(-0 3.339041555e-10 -1.521410998e-10)
(-0 4.262860635e-06 -1.106878676e-06)
(-0 9.609913448e-05 -71.53645651)
(-0 3.360891329e-06 -60.26225703)
(-0 4.555868118e-08 -1.08841758e-07)
(-0 1.309857179e-12 -2.842934338e-12)
(-0 5.786012547e-13 -1.114390004e-12)
(-0 1.934019727e-13 -3.287572844e-13)
(-0 3.535204974e-13 -5.322735272e-13)
(-0 3.368664267e-13 -4.523855471e-13)
(-0 1.011227272e-13 -1.220752849e-13)
(-0 9.998416131e-14 -1.093332166e-13)
(-0 2.250343213e-14 -2.244800009e-14)
(-0 4.716471083e-14 -4.319471851e-14)
(-0 1.159429376e-14 -9.804753018e-15)
(-0 2.082178016e-15 -1.634275203e-15)
(-0 2.304009483e-15 -1.686213264e-15)
(-0 2.644373548e-16 -1.812069485e-16)
(-0 3.002030186e-16 -1.933371637e-16)
(-0 1.665584533e-16 -1.011539625e-16)
(-0 3.942397441e-17 -2.264761362e-17)
(-0 1.386141539e-17 -7.553078757e-18)
(-0 7.976142185e-18 -4.132999424e-18)
(-0 5.016694419e-18 -2.477725516e-18)
(-0 1.093067489e-18 -5.156646364e-19)
(-0 2.227336043e-19 -1.005603431e-19)
(-0 1.524016496e-19 -6.596818202e-20)
(-0 1.698222789e-20 -7.059095853e-21)
(-0 1.099503852e-20 -4.391177932e-21)
(-0 3.302219492e-21 -1.267427102e-21)
(-0 6.184381286e-22 -2.289834922e-22)
(-0 1.239728655e-22 -3.975553429e-23)
(-0 6.020330764e-23 4.45950427e-24)
(-0 3.147374611e-23 4.932452748e-24)
(-0 1.623430221e-23 1.909917907e-24)
(-0 3.99629562e-24 -1.902997915e-25)
(-0 3.235096455e-24 -7.058392265e-25)
(-0 -0 0)
(-0 -0 0)
(-0 -0 0)
(-0 -0 0)
(-0 -0 -0)
(-0 -0 -0)
(-0 0 -0)
(-0 0 0)
(-0 -8.7532516e-14 -1.308830944e-12)
(-0 -1.860109203e-13 -1.4005497e-12)
(-0 9.33500759e-14 -1.123257887e-12)
(-0 2.854891575e-11 -5.080934049e-11)
(-0 2.873538858e-10 -2.44227987e-10)
(-0 1.239679322e-10 -6.187692209e-11)
(-0 3.21110527e-10 -9.205357725e-11)
(-0 0.0001238170241 -126.7819978)
(-0 4.504195905e-06 -112.7861296)
(-0 8.424790208e-08 -2.425589337e-07)
(-0 1.420685478e-12 -3.381089545e-12)
(-0 5.447909741e-13 -1.084798533e-12)
(-0 9.731009491e-13 -1.649612164e-12)
(-0 3.092025648e-13 -4.540326665e-13)
(-0 2.875413311e-13 -3.713255365e-13)
(-0 6.539440244e-14 -7.522718564e-14)
(-0 1.441205515e-13 -1.492835793e-13)
(-0 3.053509835e-14 -2.873915674e-14)
(-0 5.733052414e-14 -4.94077635e-14)
(-0 5.97614132e-14 -4.74719436e-14)
(-0 8.835104458e-15 -6.506153709e-15)
(-0 5.17980762e-15 -3.55385646e-15)
(-0 1.041500335e-15 -6.687107821e-16)
(-0 5.657408467e-16 -3.412656135e-16)
(-0 2.248722564e-16 -1.278875895e-16)
(-0 1.167708704e-16 -6.280743204e-17)
(-0 4.776748162e-17 -2.436835422e-17)
(-0 3.032794574e-17 -1.47120332e-17)
(-0 9.154739425e-18 -4.232822084e-18)
(-0 1.368232354e-18 -6.042667068e-19)
(-0 3.100309629e-19 -1.310424759e-19)
(-0 2.015780405e-19 -8.169188584e-20)
(-0 9.701611978e-20 -3.775043337e-20)
(-0 1.601460375e-20 -5.990045504e-21)
(-0 5.525881785e-21 -1.987407979e-21)
(-0 1.403524768e-21 -4.772886799e-22)
(-0 3.532092857e-22 -1.06446634e-22)
(-0 1.029719631e-22 -1.311744753e-23)
(-0 1.476523737e-23 2.353878422e-24)
(-0 1.528538001e-23 2.136666024e-24)
(-0 2.980665741e-24 -1.545530384e-24)
(-0 5.570593895e-25 -9.687989383e-26)
(-0 0 -0)
(-0 -0 0)
(-0 -0 0)
(-0 -0 0)
(-0 -0 -0)
(-0 -0 -0)
(-0 0 0)
(-0 0 0)
(-0 -2.557747829e-14 -3.787978021e-13)
(-0 -3.475370017e-13 -1.682789068e-12)
(-0 -1.323431995e-14 -8.436916044e-14)
(-0 1.204946842e-12 -4.345964866e-12)
(-0 1.399876591e-10 -1.516665897e-10)
(-0 3.983217605e-10 -2.259728934e-10)
(-0 8.512606786e-05 -3.503574412e-05)
(-0 0.0001949703491 -226.9707434)
(-0 6.310923096e-06 -209.5648658)
(-0 1.13720743e-07 -3.64120721e-07)
(-0 1.042963838e-12 -2.55032478e-12)
(-0 2.198942465e-12 -4.317086112e-12)
(-0 8.224521567e-13 -1.344192354e-12)
(-0 8.682602911e-13 -1.213513959e-12)
(-0 3.226573794e-13 -3.935542279e-13)
(-0 2.915536537e-13 -3.152731307e-13)
(-0 7.240436997e-14 -7.028556105e-14)
(-0 1.795953382e-13 -1.581005558e-13)
(-0 4.978104181e-14 -4.007590075e-14)
(-0 5.643072487e-14 -4.183908113e-14)
(-0 2.102224985e-14 -1.444143961e-14)
(-0 9.777176583e-15 -6.255641095e-15)
(-0 2.963557747e-15 -1.774086112e-15)
(-0 9.228922956e-16 -5.189871318e-16)
(-0 9.409055463e-16 -4.988184281e-16)
(-0 3.29234324e-16 -1.650727855e-16)
(-0 1.733434944e-16 -8.243203368e-17)
(-0 5.272073675e-17 -2.384037112e-17)
(-0 9.036364593e-18 -3.894851817e-18)
(-0 9.93088434e-19 -4.088691979e-19)
(-0 1.709832869e-18 -6.737581241e-19)
(-0 6.233588082e-19 -2.355127303e-19)
(-0 1.162797778e-19 -4.218242742e-20)
(-0 3.62114326e-20 -1.263036475e-20)
(-0 1.112300733e-20 -3.728015989e-21)
(-0 2.246431517e-21 -7.242141533e-22)
(-0 8.220034686e-22 -2.454084016e-22)
(-0 9.016815972e-23 -1.93942776e-23)
(-0 2.721967208e-23 4.711097091e-24)
(-0 1.380821371e-23 3.975091827e-24)
(-0 1.942209321e-24 -1.479778531e-24)
(-0 0 -0)
(-0 0 0)
(-0 -0 0)
(-0 -0 0)
(-0 -0 -0)
(-0 -0 -0)
(-0 0 -0)
(-0 0 -0)
(-0 0 -0)
(-0 -4.120143605e-15 -5.894619097e-14)
(-0 -2.359084938e-13 -1.04738287e-12)
(-0 -3.17923338e-13 -9.698991375e-13)
(-0 -2.693892966e-14 -7.395886291e-13)
(-0 4.756712839e-12 -7.671631474e-12)
(-0 2.742220336e-10 -1.865969848e-10)
(-0 0.0002011563158 -0.0002262640895)
(-0 0.0001645543405 -407.8656663)
(-0 9.18712901e-06 -383.872856)
(-0 1.459752056e-07 -4.816494728e-07)
(-0 3.26432489e-12 -7.787321592e-12)
(-0 3.226498545e-12 -6.031905774e-12)
(-0 2.706811605e-12 -4.163167717e-12)
(-0 1.845703979e-12 -2.412465286e-12)
(-0 1.367506126e-12 -1.554460031e-12)
(-0 7.759040956e-13 -7.803357904e-13)
(-0 6.644914347e-13 -5.991994488e-13)
(-0 2.855948661e-14 -2.33376204e-14)
(-0 2.045872415e-13 -1.528206738e-13)
(-0 1.233868925e-13 -8.486272532e-14)
(-0 1.694984551e-14 -1.080007356e-14)
(-0 9.014725667e-15 -5.349597153e-15)
(-0 9.253009746e-15 -5.137540539e-15)
(-0 5.481720471e-15 -2.859212899e-15)
(-0 2.167773616e-15 -1.065993954e-15)
(-0 4.162117583e-16 -1.935767778e-16)
(-0 8.291954533e-17 -3.657966767e-17)
(-0 6.539951036e-17 -2.743636643e-17)
(-0 3.148171455e-17 -1.258930342e-17)
(-0 1.397343305e-17 -5.337894659e-18)
(-0 4.348829867e-18 -1.590073979e-18)
(-0 8.186271826e-19 -2.870038824e-19)
(-0 2.360196104e-19 -7.947896221e-20)
(-0 8.3339733e-20 -2.699657265e-20)
(-0 2.192354851e-20 -6.829706665e-21)
(-0 3.593831531e-21 -1.07865696e-21)
(-0 1.105435923e-21 -3.057662988e-22)
(-0 1.535081619e-22 -3.506531617e-23)
(-0 6.818211815e-23 -6.465545687e-24)
(-0 4.498464807e-24 1.071063049e-24)
(-0 -0 -0)
(-0 0 0)
(-0 0 -0)
(-0 -0 0)
(-0 -0 0)
(-0 -0 -0)
(-0 -0 -0)
(-0 -0 -0)
(-0 0 -0)
(-0 0 0)
(-0 -2.069140161e-46 -3.001701243e-45)
(-0 -7.01645977e-14 -2.91477369e-13)
(-0 -5.010679015e-13 -1.162021525e-12)
(-0 -9.201596535e-14 -2.683752098e-13)
(-0 7.839496442e-14 -2.98149913e-13)
(-0 6.514505166e-13 -5.826132671e-13)
(-0 5.805741811e-05 -2.686810065e-05)
(-0 4.412238707e-05 -728.10466)
(-0 1.433660276e-05 -688.798634)
(-0 1.314921468e-07 -4.181589605e-07)
(-0 8.298317386e-12 -1.855902215e-11)
(-0 2.922064792e-12 -5.069162494e-12)
(-0 2.821602193e-12 -4.010311117e-12)
(-0 3.970290179e-12 -4.787029806e-12)
(-0 1.892527856e-12 -1.982957046e-12)
(-0 2.335045632e-12 -2.164070965e-12)
(-0 1.172100663e-13 -9.739353578e-14)
(-0 6.238895403e-13 -4.6981359e-13)
(-0 2.15423437e-13 -1.483062429e-13)
(-0 9.738995488e-14 -6.174274713e-14)
(-0 9.102417934e-14 -5.346939204e-14)
(-0 1.769026497e-14 -9.679503709e-15)
(-0 3.518689238e-14 -1.801619469e-14)
(-0 1.494488194e-14 -7.189319684e-15)
(-0 1.672815715e-15 -7.587628677e-16)
(-0 1.444412178e-15 -6.197182535e-16)
(-0 8.393470213e-16 -3.416106911e-16)
(-0 2.737967439e-16 -1.059806135e-16)
(-0 7.806184461e-17 -2.880470253e-17)
(-0 2.607230664e-17 -9.190925876e-18)
(-0 4.587424877e-18 -1.547944685e-18)
(-0 1.0288575e-18 -3.329116651e-19)
(-0 4.204562062e-19 -1.306841128e-19)
(-0 6.269320665e-20 -1.874114673e-20)
(-0 2.244988416e-20 -6.458996215e-21)
(-0 3.708617119e-21 -1.026334721e-21)
(-0 2.766785968e-22 -7.359411935e-23)
(-0 1.130694713e-22 -2.950392957e-23)
(-0 3.227805261e-23 -8.65587916e-24)
(-0 2.297825657e-24 -7.195211653e-25)
(-0 0 -0)
(-0 0 0)
(-0 0 -0)
(-0 -0 0)
(-0 -0 -0)
(-0 -0 0)
(-0 -0 0)
(-0 -0 0)
(-0 0 0)
(-0 0 0)
(-0 -3.62838109e-25 -5.23479564e-24)
(-0 -1.292223451e-24 -5.291203235e-24)
(-0 -2.262957857e-13 -4.644528739e-13)
(-0 -2.544161739e-13 -4.110819228e-13)
(-0 -2.681490949e-14 -1.761920882e-13)
(-0 2.363956208e-12 -3.311002278e-12)
(-0 1.498303534e-06 -7.884159303e-07)
(-0 0.0002074059115 -1276.329369)
(-0 2.309792837e-05 -1203.131542)
(-0 6.309332514e-11 -1.832136614e-10)
(-0 4.672890918e-12 -9.50250138e-12)
(-0 5.563038742e-12 -8.777220041e-12)
(-0 4.770274392e-12 -6.173621407e-12)
(-0 4.415527898e-12 -4.853729674e-12)
(-0 2.816201231e-12 -2.6930652e-12)
(-0 5.708934454e-13 -4.833078372e-13)
(-0 8.910579899e-13 -6.768179665e-13)
(-0 1.075178471e-12 -7.405399951e-13)
(-0 3.877863979e-13 -2.442937725e-13)
(-0 4.267162036e-13 -2.476460608e-13)
(-0 3.08907035e-13 -1.661634916e-13)
(-0 1.493382794e-13 -7.484548887e-14)
(-0 3.36189435e-14 -1.577031591e-14)
(-0 2.609925517e-14 -1.150486484e-14)
(-0 1.245617016e-14 -5.178126498e-15)
(-0 3.577428209e-15 -1.406910539e-15)
(-0 6.8952457e-16 -2.572682391e-16)
(-0 1.164814772e-16 -4.133793621e-17)
(-0 2.219908734e-17 -7.510950474e-18)
(-0 2.56366291e-18 -8.287285406e-19)
(-0 1.460173171e-18 -4.518481891e-19)
(-0 7.968017937e-19 -2.364586417e-19)
(-0 4.256636773e-19 -1.21335653e-19)
(-0 7.822566335e-20 -2.144979842e-20)
(-0 3.474006678e-20 -9.183102423e-21)
(-0 5.582000884e-21 -1.423916918e-21)
(-0 2.842074197e-21 -7.137764845e-22)
(-0 5.484032913e-22 -1.378415602e-22)
(-0 1.442042715e-22 -3.623150365e-23)
(-0 1.268713238e-23 -2.615903584e-24)
(-0 1.020698881e-25 -0)
(-0 0 0)
(-0 0 -0)
(-0 -0 -0)
(-0 -0 0)
(-0 -0 -0)
(-0 -0 -0)
(-0 -0 -0)
(-0 0 -0)
(-0 0 -0)
(-0 -8.1306989e-25 -1.142160328e-23)
(-0 -9.379128587e-21 -3.704039053e-20)
(-0 -1.750934513e-13 -3.338411434e-13)
(-0 -3.886339306e-13 -4.763238764e-13)
(-0 -1.408465398e-12 -2.247233523e-12)
(-0 2.265432665e-13 -9.053369376e-13)
(-0 7.195587909e-07 -5.082081545e-07)
(-0 0.0002539447505 -2167.916992)
(-0 3.887630554e-05 -2031.889597)
(-0 2.455984723e-11 -6.249758923e-11)
(-0 9.148416958e-12 -1.651642549e-11)
(-0 1.215588278e-11 -1.715607089e-11)
(-0 4.615868663e-12 -5.36934648e-12)
(-0 5.764204223e-12 -5.713583789e-12)
(-0 1.854634716e-12 -1.60287817e-12)
(-0 2.348795773e-12 -1.800032384e-12)
(-0 3.671751671e-12 -2.52770903e-12)
(-0 5.257512804e-13 -3.284952291e-13)
(-0 2.02097591e-12 -1.155748814e-12)
(-0 1.282565066e-12 -6.760674414e-13)
(-0 1.00632532e-13 -4.918717148e-14)
(-0 2.469120629e-13 -1.124846869e-13)
(-0 7.549233216e-14 -3.219875559e-14)
(-0 8.346369033e-15 -3.34605304e-15)
(-0 6.61445312e-15 -2.501203622e-15)
(-0 4.186945003e-15 -1.498068365e-15)
(-0 1.732614946e-15 -5.882181812e-16)
(-0 5.413811631e-16 -1.748426894e-16)
(-0 2.011900119e-16 -6.195322726e-17)
(-0 7.645043248e-17 -2.249409026e-17)
(-0 1.637476643e-17 -4.612490566e-18)
(-0 5.480698482e-18 -1.480618802e-18)
(-0 1.225443951e-18 -3.18022505e-19)
(-0 3.497032505e-19 -8.731848399e-20)
(-0 9.90982143e-20 -2.385497634e-20)
(-0 2.400896715e-20 -5.582770695e-21)
(-0 5.61179286e-21 -1.275672803e-21)
(-0 8.741041827e-22 -1.939692508e-22)
(-0 2.971882128e-22 -6.856767845e-23)
(-0 5.401176266e-23 -1.095667185e-23)
(-0 5.862345613e-24 7.994107654e-25)
(-0 0 0)
(-0 0 -0)
(-0 -0 -0)
(-0 -0 0)
(-0 -0 -0)
(-0 -0 -0)
(-0 -0 -0)
(-0 0 -0)
(-0 0 -0)
(-0 -2.940746999e-21 -3.956050874e-20)
(-0 -3.185196275e-20 -1.186903087e-19)
(-0 -3.618432481e-14 -6.549289224e-14)
(-0 -4.491291185e-13 -4.872143775e-13)
(-0 -4.69080571e-13 -4.279993388e-13)
(-0 -1.578515024e-12 -5.01172151e-12)
(-0 8.982629686e-07 -9.732230073e-07)
(-0 0.0002547427247 -3519.319974)
(-0 6.931380916e-05 -3293.297607)
(-0 4.14404473e-07 -8.969757484e-07)
(-0 2.901074182e-11 -4.561203028e-11)
(-0 1.898269282e-11 -2.361456526e-11)
(-0 1.797841597e-11 -1.856479182e-11)
(-0 2.024161069e-11 -1.789142465e-11)
(-0 5.990229621e-12 -4.630524069e-12)
(-0 1.493294115e-11 -1.02574597e-11)
(-0 4.882826683e-12 -3.017454868e-12)
(-0 5.314711735e-12 -2.984192445e-12)
(-0 8.944541993e-13 -4.600675446e-13)
(-0 1.917087075e-12 -9.094767464e-13)
(-0 3.996210636e-13 -1.758805024e-13)
(-0 2.220444844e-13 -9.112103303e-14)
(-0 1.194802694e-13 -4.591958332e-14)
(-0 3.587290013e-14 -1.296222462e-14)
(-0 1.753400777e-14 -5.977322125e-15)
(-0 5.538202681e-15 -1.78669602e-15)
(-0 1.936909909e-15 -5.930046659e-16)
(-0 7.009481134e-16 -2.041726558e-16)
(-0 1.48247175e-16 -4.117735452e-17)
(-0 6.710320811e-17 -1.781094137e-17)
(-0 2.317908575e-17 -5.890435981e-18)
(-0 6.371435236e-18 -1.552976493e-18)
(-0 1.593447418e-18 -3.731304352e-19)
(-0 7.26787079e-19 -1.637568793e-19)
(-0 1.818432778e-19 -3.949070442e-20)
(-0 3.728140553e-20 -7.816036508e-21)
(-0 9.636253453e-21 -1.947223435e-21)
(-0 1.924882216e-21 -3.80204644e-22)
(-0 3.375181819e-22 -6.677568343e-23)
(-0 1.104609656e-22 -2.403813758e-23)
(-0 1.868551123e-23 -3.170874633e-24)
(-0 6.176093232e-25 -1.33209854e-25)
(-0 0 -0)
(-0 -0 -0)
(-0 -0 0)
(-0 -0 -0)
(-0 -0 0)
(-0 -0 0)
(-0 0 -0)
(-0 0 -0)
(-0 -3.212284458e-21 -3.967885225e-20)
(-0 -5.497454892e-20 -1.865647613e-19)
(-0 -4.010110113e-20 -6.641401242e-20)
(-0 -1.044784691e-13 -1.056547502e-13)
(-0 -5.014640787e-13 -3.654913568e-13)
(-0 -4.77850709e-13 -4.6997326e-13)
(-0 1.073219342e-07 -2.923488938e-07)
(-0 0.0002128738762 -5392.892992)
(-0 9.542632778e-05 -5082.368544)
(-0 1.83611129e-06 -3.310190118e-06)
(-0 1.68675231e-11 -2.271746613e-11)
(-0 4.322499001e-11 -4.673105751e-11)
(-0 2.245651142e-11 -2.032161371e-11)
(-0 2.131289919e-11 -1.659564895e-11)
(-0 3.291998028e-11 -2.249578799e-11)
(-0 2.824434417e-11 -1.719149606e-11)
(-0 6.415681331e-12 -3.519101092e-12)
(-0 7.988567517e-12 -3.986277435e-12)
(-0 2.97168978e-12 -1.359608733e-12)
(-0 1.992047571e-12 -8.411942771e-13)
(-0 9.301149212e-14 -3.645727618e-14)
(-0 9.85420398e-14 -3.602964781e-14)
(-0 5.978471182e-14 -2.047841027e-14)
(-0 4.18641993e-14 -1.348580364e-14)
(-0 2.140176774e-14 -6.505660593e-15)
(-0 4.836419799e-15 -1.391556573e-15)
(-0 2.815533265e-15 -7.68900575e-16)
(-0 4.353523901e-16 -1.131276905e-16)
(-0 1.723900804e-16 -4.272162396e-17)
(-0 7.853045369e-17 -1.859882605e-17)
(-0 1.511592143e-18 -3.427870896e-19)
(-0 3.692394173e-18 -8.031657052e-19)
(-0 2.339957887e-18 -4.890150436e-19)
(-0 7.719297101e-19 -1.552370931e-19)
(-0 1.99337584e-19 -3.863553937e-20)
(-0 4.927886551e-20 -9.221070235e-21)
(-0 9.606002372e-21 -1.732205667e-21)
(-0 3.541017928e-21 -6.21857718e-22)
(-0 7.075587207e-22 -1.211671283e-22)
(-0 1.465269794e-22 -2.677464205e-23)
(-0 3.902078957e-23 -4.641239288e-24)
(-0 5.824903617e-24 1.920297896e-25)
(-0 0 -0)
(-0 -0 -0)
(-0 -0 0)
(-0 -0 0)
(-0 -0 -0)
(-0 -0 -0)
(-0 0 -0)
(-0 0 -0)
(-0 -1.50859764e-22 -1.625618606e-21)
(-0 -6.339620775e-20 -1.884299991e-19)
(-0 -1.215090629e-19 -1.771835221e-19)
(-0 -2.644794584e-19 -2.442414281e-19)
(-0 -1.429723556e-13 -9.636241737e-14)
(-0 -3.958656649e-17 -2.446385874e-17)
(-0 -9.087798001e-08 -2.856029124e-07)
(-0 0.000100509994 -7725.517242)
(-0 -4.964092901e-05 -7405.70768)
(-0 2.465845717e-05 -3.705507956e-05)
(-0 4.964310659e-11 -5.638921828e-11)
(-0 1.997153585e-11 -1.848730938e-11)
(-0 4.518184413e-11 -3.531852126e-11)
(-0 2.219997919e-11 -1.501504856e-11)
(-0 4.625158572e-11 -2.75530708e-11)
(-0 1.27476413e-11 -6.780983222e-12)
(-0 6.873967299e-12 -3.300933325e-12)
(-0 1.013241421e-11 -4.432008324e-12)
(-0 3.902018684e-12 -1.566368869e-12)
(-0 2.741376486e-12 -1.016400186e-12)
(-0 1.01282226e-12 -3.487501186e-13)
(-0 3.345832463e-13 -1.075124212e-13)
(-0 1.376155631e-13 -4.144136165e-14)
(-0 1.67689873e-14 -4.750256721e-15)
(-0 1.71537215e-14 -4.586384241e-15)
(-0 5.097371736e-16 -1.290241152e-16)
(-0 2.206961006e-15 -5.302933691e-16)
(-0 1.227818107e-15 -2.807553369e-16)
(-0 4.208191613e-16 -9.177887006e-17)
(-0 2.022499581e-16 -4.215864666e-17)
(-0 3.709909919e-17 -7.405217418e-18)
(-0 1.413317283e-17 -2.706143592e-18)
(-0 2.56639892e-18 -4.721426319e-19)
(-0 2.545488686e-19 -4.506403995e-20)
(-0 1.533081669e-19 -2.615526662e-20)
(-0 7.227589487e-20 -1.191339086e-20)
(-0 2.201879465e-20 -3.507755091e-21)
(-0 3.829458063e-21 -5.935640795e-22)
(-0 6.586080197e-22 -9.95890155e-23)