/*--------------------------------*- C++ -*----------------------------------*\
  =========                 |
  \\      /  F ield         | OpenFOAM: The Open Source CFD Toolbox
   \\    /   O peration     | Website:  https://openfoam.org
    \\  /    A nd           | Version:  6
     \\/     M anipulation  |
\*---------------------------------------------------------------------------*/
FoamFile
{
    version     2.0;
    format      ascii;
    class       volScalarField;
    location    "0.11";
    object      Num_divU;
}
// * * * * * * * * * * * * * * * * * * * * * * * * * * * * * * * * * * * * * //

dimensions      [0 0 -1 0 0 0 0];

internalField   nonuniform List<scalar> 
2500
(
1.434884474e-07
-4.431845309e-08
4.295099716e-07
-2.051423142e-08
-4.994760327e-07
-4.092896105e-07
-1.729711405e-07
-4.857387743e-07
-6.550596529e-07
3.3825503e-23
-1.848404827e-17
-4.151990932e-17
-6.315901326e-17
-8.420929141e-17
-1.049848081e-16
-1.255305181e-16
-1.458231539e-16
-1.658266158e-16
-1.85504055e-16
-2.04819689e-16
-2.237399869e-16
-2.422331063e-16
-2.602682948e-16
-2.778165321e-16
-2.948513677e-16
-3.113491685e-16
-3.272885856e-16
-3.42650317e-16
-3.57416786e-16
-3.715724406e-16
-3.851037981e-16
-3.979994025e-16
-4.102498897e-16
-4.218477425e-16
-4.327870551e-16
-4.430634667e-16
-4.526739136e-16
-4.616165682e-16
-4.69890551e-16
-4.774959179e-16
-4.844334407e-16
-4.907045847e-16
-4.96311195e-16
-5.01255555e-16
-5.055401794e-16
-5.091677972e-16
-5.121412416e-16
-5.144634248e-16
-5.161366471e-16
-5.171597667e-16
2.35262482e-07
1.050652646e-07
1.011629022e-07
-4.316313682e-07
-9.733192432e-07
-8.818830085e-07
-1.556162938e-07
9.615289928e-07
-2.538542138e-08
-3.685165193e-17
-7.723070592e-17
-1.169847423e-16
-1.548084994e-16
-1.919394587e-16
-2.286197231e-16
-2.648344504e-16
-3.005236254e-16
-3.356233461e-16
-3.700719782e-16
-4.038087808e-16
-4.367754067e-16
-4.689177419e-16
-5.001856032e-16
-5.305327983e-16
-5.599171016e-16
-5.883002082e-16
-6.156475722e-16
-6.419282837e-16
-6.671150337e-16
-6.911841869e-16
-7.14115655e-16
-7.358929692e-16
-7.565027716e-16
-7.75934629e-16
-7.94180906e-16
-8.112361569e-16
-8.270971406e-16
-8.417623741e-16
-8.55231985e-16
-8.675073789e-16
-8.785911031e-16
-8.884865627e-16
-8.971977926e-16
-9.047295073e-16
-9.110870251e-16
-9.162767632e-16
-9.203076577e-16
-9.231956484e-16
-9.249788522e-16
-4.083104225e-16
-1.911209996e-08
-8.887154974e-08
-1.503580905e-07
-3.005371883e-07
-8.099744889e-07
-1.112104043e-06
-1.15397187e-06
-4.102168641e-07
1.244911493e-07
-3.019686683e-17
-6.433889102e-17
-9.869876054e-17
-1.315738388e-16
-1.639305413e-16
-1.959222433e-16
-2.275197855e-16
-2.586668062e-16
-2.893058596e-16
-3.193824226e-16
-3.488428715e-16
-3.77636324e-16
-4.057157776e-16
-4.330376999e-16
-4.59561427e-16
-4.85249437e-16
-5.100676263e-16
-5.339855407e-16
-5.569760424e-16
-5.790152998e-16
-6.00082555e-16
-6.201601967e-16
-6.392334954e-16
-6.572905721e-16
-6.743222247e-16
-6.903214061e-16
-7.052832891e-16
-7.192049627e-16
-7.320849884e-16
-7.439233844e-16
-7.547213089e-16
-7.644808371e-16
-7.732048516e-16
-7.808967131e-16
-7.875601612e-16
-7.931991258e-16
-7.978175076e-16
-8.014185806e-16
-8.040023791e-16
-8.055539515e-16
-3.977989983e-16
-1.066360806e-07
2.4599561e-07
-8.56234872e-08
-1.609798248e-07
-4.013712172e-07
-4.914076441e-07
-5.518438722e-07
-2.683159142e-07
7.371440435e-08
-2.972398526e-17
-6.318720364e-17
-9.69870761e-17
-1.293790531e-16
-1.612802751e-16
-1.928269757e-16
-2.239866265e-16
-2.547024572e-16
-2.849174694e-16
-3.145782451e-16
-3.43632125e-16
-3.72028506e-16
-3.997208367e-16
-4.266662247e-16
-4.528247358e-16
-4.781594094e-16
-5.02636527e-16
-5.262259491e-16
-5.489009729e-16
-5.706381139e-16
-5.91417041e-16
-6.112203195e-16
-6.300335496e-16
-6.478449118e-16
-6.646452596e-16
-6.804277239e-16
-6.951875005e-16
-7.089216321e-16
-7.216287798e-16
-7.333089225e-16
-7.439631862e-16
-7.535936204e-16
-7.62202895e-16
-7.697941935e-16
-7.763707792e-16
-7.819360747e-16
-7.864928538e-16
-7.90042734e-16
-7.925846036e-16
-7.941123471e-16
-3.968854504e-16
-1.717633189e-07
2.1816135e-07
-2.852357715e-08
-2.990561214e-07
-3.759915009e-07
-2.233022029e-07
-1.773880265e-07
-2.135845697e-07
-8.068343761e-08
-2.970273256e-17
-6.312045512e-17
-9.687346015e-17
-1.292283744e-16
-1.610968363e-16
-1.926117309e-16
-2.237406362e-16
-2.544260026e-16
-2.846107191e-16
-3.142411802e-16
-3.432650484e-16
-3.716317978e-16
-3.992946382e-16
-4.262107312e-16
-4.523404801e-16
-4.776470456e-16
-5.020968593e-16
-5.256597084e-16
-5.48308882e-16
-5.700209762e-16
-5.907757558e-16
-6.10555868e-16
-6.293468965e-16
-6.471370522e-16
-6.639172243e-16
-6.79680496e-16
-6.94422118e-16
-7.081391448e-16
-7.208302144e-16
-7.324953059e-16
-7.431355585e-16
-7.527529091e-16
-7.613500014e-16
-7.689297792e-16
-7.754954245e-16
-7.81049875e-16
-7.855955195e-16
-7.891337821e-16
-7.916644541e-16
-7.931857777e-16
-3.968835081e-16
9.132579462e-08
-9.944769724e-08
1.977097689e-07
-1.867779338e-07
-2.488957971e-07
-8.006662571e-08
8.995843634e-08
-5.882667686e-08
-1.736722263e-07
-2.971351472e-17
-6.314857957e-17
-9.690855243e-17
-1.292694944e-16
-1.611452673e-16
-1.926672868e-16
-2.238041372e-16
-2.544970729e-16
-2.846890226e-16
-3.14325838e-16
-3.433553387e-16
-3.71727174e-16
-3.993944336e-16
-4.263143293e-16
-4.524472969e-16
-4.777567556e-16
-5.022091865e-16
-5.257742833e-16
-5.484253866e-16
-5.701390349e-16
-5.90894971e-16
-6.106759473e-16
-6.294675196e-16
-6.472579959e-16
-6.640381403e-16
-6.79801126e-16
-6.945421745e-16
-7.08258316e-16
-7.209482705e-16
-7.326119458e-16
-7.432505067e-16
-7.52865805e-16
-7.614604448e-16
-7.690372846e-16
-7.755993681e-16
-7.81149416e-16
-7.856898733e-16
-7.892222886e-16
-7.917472552e-16
-7.932647403e-16
-3.969731738e-16
3.173291385e-07
-3.010485238e-07
1.57831024e-07
-4.085334755e-08
-1.507284836e-07
-4.778392626e-08
8.924624533e-08
1.334511449e-08
-1.319837653e-07
-2.972875032e-17
-6.318004453e-17
-9.695633166e-17
-1.293291299e-16
-1.612161464e-16
-1.927484991e-16
-2.238967795e-16
-2.546007378e-16
-2.848035395e-16
-3.144503795e-16
-3.434889635e-16
-3.718691827e-16
-3.995442954e-16
-4.264714052e-16
-4.526110344e-16
-4.779266842e-16
-5.023848839e-16
-5.259553442e-16
-5.486113347e-16
-5.703294129e-16
-5.910892772e-16
-6.108737239e-16
-6.296683537e-16
-6.474614036e-16
-6.642437535e-16
-6.800084639e-16
-6.947508012e-16
-7.084678757e-16
-7.211582524e-16
-7.328220214e-16
-7.434601656e-16
-7.530746479e-16
-7.616679459e-16
-7.692428828e-16
-7.758024422e-16
-7.813494049e-16
-7.858861454e-16
-7.894145269e-16
-7.91935748e-16
-7.934503942e-16
-3.970761192e-16
4.329892656e-07
-1.308282643e-07
-7.999645322e-08
5.999210111e-08
-8.542900785e-08
-5.085745369e-08
-5.852565636e-08
-8.585579571e-08
-4.91683406e-08
-2.974672339e-17
-6.320672602e-17
-9.700223912e-17
-1.293908658e-16
-1.612899761e-16
-1.928329481e-16
-2.239921515e-16
-2.547071798e-16
-2.849209662e-16
-3.145782446e-16
-3.436263137e-16
-3.720153692e-16
-3.996988094e-16
-4.266337389e-16
-4.52780675e-16
-4.781031668e-16
-5.025677156e-16
-5.261441805e-16
-5.488056337e-16
-5.705287244e-16
-5.912931076e-16
-6.110815758e-16
-6.298797223e-16
-6.476758847e-16
-6.644608128e-16
-6.802277458e-16
-6.949718222e-16
-7.086901457e-16
-7.213813508e-16
-7.33045481e-16
-7.436835769e-16
-7.53297511e-16
-7.61889802e-16
-7.694632819e-16
-7.760208366e-16
-7.815653234e-16
-7.860992287e-16
-7.896246574e-16
-7.921430662e-16
-7.936554732e-16
-3.971836107e-16
4.634679416e-07
1.278947142e-07
-2.355277313e-07
2.985552176e-08
-1.763493921e-08
-6.200821599e-08
-1.446752448e-07
-1.847051053e-07
-3.162296029e-08
-2.976513194e-17
-6.323189288e-17
-9.704265124e-17
-1.29451732e-16
-1.613641025e-16
-1.929184285e-16
-2.240876908e-16
-2.548132292e-16
-2.850376329e-16
-3.147050817e-16
-3.437628063e-16
-3.721608887e-16
-3.998529e-16
-4.267959305e-16
-4.529505035e-16
-4.782801577e-16
-5.027514055e-16
-5.263340636e-16
-5.490013175e-16
-5.70729648e-16
-5.914988468e-16
-6.112916144e-16
-6.300936327e-16
-6.47893119e-16
-6.646810032e-16
-6.804502964e-16
-6.951963653e-16
-7.089161963e-16
-7.216084686e-16
-7.332732038e-16
-7.439114591e-16
-7.535251178e-16
-7.621166904e-16
-7.696889655e-16
-7.762449611e-16
-7.817875094e-16
-7.863192487e-16
-7.898423323e-16
-7.923585494e-16
-7.938690831e-16
-3.972935979e-16
2.222344333e-07
1.692933346e-07
-2.25342013e-07
-5.032860955e-08
-8.859288178e-09
-5.310959077e-08
-1.385892405e-07
-1.263626235e-07
-3.915374291e-09
-2.978007684e-17
-6.325775951e-17
-9.707396487e-17
-1.295077315e-16
-1.614360817e-16
-1.930036101e-16
-2.241823467e-16
-2.549180709e-16
-2.851526647e-16
-3.148299093e-16
-3.438970831e-16
-3.723043389e-16
-4.000050983e-16
-4.269564563e-16
-4.53118906e-16
-4.784559279e-16
-5.02934109e-16
-5.265231665e-16
-5.491963103e-16
-5.709301019e-16
-5.917042574e-16
-6.115015308e-16
-6.303075757e-16
-6.481106626e-16
-6.649016108e-16
-6.806735812e-16
-6.954218047e-16
-7.091433805e-16
-7.218369073e-16
-7.33502451e-16
-7.441410783e-16
-7.537546858e-16
-7.623457994e-16
-7.699172619e-16
-7.764719979e-16
-7.820130118e-16
-7.8654298e-16
-7.90064238e-16
-7.925786367e-16
-7.940875745e-16
-3.974045286e-16
-1.059384227e-07
-5.252494928e-08
-7.684563036e-08
-8.628137152e-08
5.605564048e-08
-9.791134711e-08
-5.444199492e-08
5.931978134e-08
1.274098706e-07
-2.978819178e-17
-6.32834475e-17
-9.709342678e-17
-1.295526757e-16
-1.615020211e-16
-1.930858004e-16
-2.24274927e-16
-2.550206905e-16
-2.852652148e-16
-3.14951919e-16
-3.440282706e-16
-3.724445794e-16
-4.001541805e-16
-4.271140516e-16
-4.53284513e-16
-4.786290827e-16
-5.031142301e-16
-5.267098049e-16
-5.493889444e-16
-5.711282509e-16
-5.919074319e-16
-6.117093342e-16
-6.305195047e-16
-6.483263461e-16
-6.651205544e-16
-6.808953384e-16
-6.956459319e-16
-7.093693791e-16
-7.220643706e-16
-7.337309291e-16
-7.443701185e-16
-7.539839248e-16
-7.625748029e-16
-7.701456399e-16
-7.76699506e-16
-7.822393147e-16
-7.867678821e-16
-7.90287592e-16
-7.928004723e-16
-7.943078925e-16
-3.975148859e-16
-2.038084337e-07
-2.706227069e-07
5.168756103e-08
1.125057542e-08
1.347280533e-07
-1.504450364e-07
1.768870595e-07
4.151945541e-07
1.669262343e-07
-2.978701063e-17
-6.331168676e-17
-9.710859501e-17
-1.295846465e-16
-1.615580907e-16
-1.931612909e-16
-2.243632286e-16
-2.551196896e-16
-2.853740691e-16
-3.150700148e-16
-3.441554052e-16
-3.725806246e-16
-4.002989545e-16
-4.272672424e-16
-4.534458271e-16
-4.787979789e-16
-5.032901809e-16
-5.26892285e-16
-5.495773942e-16
-5.713222129e-16
-5.92106469e-16
-6.119130215e-16
-6.307274231e-16
-6.485380522e-16
-6.653356527e-16
-6.811133498e-16
-6.958664111e-16
-7.095918761e-16
-7.222884902e-16
-7.339561995e-16
-7.445961841e-16
-7.542103317e-16
-7.628011967e-16
-7.703716827e-16
-7.769248566e-16
-7.824637177e-16
-7.869911212e-16
-7.905095769e-16
-7.930210458e-16
-7.945271084e-16
-3.976232673e-16
-6.36270544e-08
-2.732356211e-07
1.089962222e-07
1.812747701e-07
-3.738102715e-08
2.683851834e-07
3.945554098e-07
8.583263982e-07
-1.274886011e-07
-2.977741205e-17
-6.334552131e-17
-9.713875679e-17
-1.296131177e-16
-1.616054204e-16
-1.932276745e-16
-2.244450097e-16
-2.552134932e-16
-2.854778636e-16
-3.151829934e-16
-3.442773147e-16
-3.727113418e-16
-4.004382334e-16
-4.274147787e-16
-4.536012463e-16
-4.789609229e-16
-5.034601565e-16
-5.270687104e-16
-5.497597873e-16
-5.71510023e-16
-5.922993097e-16
-6.121104469e-16
-6.30929063e-16
-6.48743498e-16
-6.655445029e-16
-6.813252057e-16
-6.960808217e-16
-7.098084617e-16
-7.225067406e-16
-7.341757972e-16
-7.448166544e-16
-7.544313211e-16
-7.630223636e-16
-7.705926647e-16
-7.771453694e-16
-7.826834897e-16
-7.872099601e-16
-7.90727272e-16
-7.932375241e-16
-7.947422737e-16
-3.977281129e-16
1.49313729e-07
-7.392872728e-08
1.675089222e-07
1.640431618e-07
9.356488063e-08
7.170648589e-07
1.017968902e-07
7.31035388e-07
-3.865661713e-07
-2.976993922e-17
-6.336613613e-17
-9.719097198e-17
-1.296510425e-16
-1.61650181e-16
-1.932864719e-16
-2.245195063e-16
-2.553008633e-16
-2.855754431e-16
-3.152897295e-16
-3.443929006e-16
-3.728356013e-16
-4.005707811e-16
-4.275552651e-16
-4.537493224e-16
-4.791161957e-16
-5.036222696e-16
-5.272371554e-16
-5.499340615e-16
-5.716896463e-16
-5.924837929e-16
-6.122994231e-16
-6.311221801e-16
-6.489404014e-16
-6.657447785e-16
-6.815284913e-16
-6.962867266e-16
-7.100165047e-16
-7.227166223e-16
-7.343870584e-16
-7.450289279e-16
-7.546442531e-16
-7.63235562e-16
-7.708058908e-16
-7.773582436e-16
-7.82895817e-16
-7.874214806e-16
-7.909378061e-16
-7.93446914e-16
-7.94950386e-16
-3.978279498e-16
2.666024713e-07
1.374567613e-07
2.054683554e-07
1.691143649e-07
4.376360331e-07
4.692200406e-07
-2.322921683e-07
-5.534676508e-07
-2.060933291e-07
-2.978325786e-17
-6.335938349e-17
-9.724944554e-17
-1.296998631e-16
-1.616971143e-16
-1.933410981e-16
-2.245874387e-16
-2.553811774e-16
-2.856658679e-16
-3.15389107e-16
-3.445010062e-16
-3.729521721e-16
-4.006953728e-16
-4.276873623e-16
-4.538885105e-16
-4.79262225e-16
-5.037747435e-16
-5.273956901e-16
-5.500981877e-16
-5.718589064e-16
-5.926577993e-16
-6.124777723e-16
-6.313045101e-16
-6.491263698e-16
-6.659340956e-16
-6.817207429e-16
-6.964815527e-16
-7.102135577e-16
-7.229155073e-16
-7.345873514e-16
-7.452303343e-16
-7.548463819e-16
-7.634381157e-16
-7.710084912e-16
-7.775606918e-16
-7.830977931e-16
-7.876227779e-16
-7.911382142e-16
-7.936462754e-16
-7.951485675e-16
-3.979213976e-16
2.427429061e-07
2.299407581e-07
1.253033182e-07
2.345543005e-07
5.26577066e-07
3.925956351e-07
-1.120954726e-07
-2.099218959e-06
1.116702358e-07
-2.98197727e-17
-6.335025731e-17
-9.729956414e-17
-1.297511937e-16
-1.617454573e-16
-1.933935425e-16
-2.246498932e-16
-2.554540916e-16
-2.857482853e-16
-3.154801569e-16
-3.44600418e-16
-3.730596709e-16
-4.00810548e-16
-4.278096349e-16
-4.540173889e-16
-4.793973439e-16
-5.039158192e-16
-5.275424184e-16
-5.502501636e-16
-5.720157517e-16
-5.92819108e-16
-6.126432207e-16
-6.314737631e-16
-6.492990911e-16
-6.661099991e-16
-6.81899514e-16
-6.966628204e-16
-7.103970123e-16
-7.231007562e-16
-7.347740804e-16
-7.454181786e-16
-7.550350239e-16
-7.636272297e-16
-7.711978182e-16
-7.777498756e-16
-7.832866613e-16
-7.878110529e-16
-7.913256915e-16
-7.938327565e-16
-7.953338868e-16
-3.980069648e-16
1.355998097e-07
2.145777509e-07
3.627042229e-08
2.085680539e-07
3.013174953e-07
-2.613984942e-08
5.634485959e-07
-2.30313295e-06
3.01341926e-07
-2.985998098e-17
-6.335499264e-17
-9.733024279e-17
-1.297926997e-16
-1.617898825e-16
-1.93442772e-16
-2.247068037e-16
-2.555194526e-16
-2.858220524e-16
-3.155620284e-16
-3.446900008e-16
-3.731567609e-16
-4.009147808e-16
-4.279204782e-16
-4.541343311e-16
-4.795199442e-16
-5.040438013e-16
-5.276754575e-16
-5.503880468e-16
-5.721581322e-16
-5.929656322e-16
-6.127935773e-16
-6.316277103e-16
-6.494563026e-16
-6.662701817e-16
-6.820624171e-16
-6.968281223e-16
-7.105643867e-16
-7.232698398e-16
-7.349446429e-16
-7.455898517e-16
-7.552075007e-16
-7.638002391e-16
-7.713710344e-16
-7.779231146e-16
-7.834595723e-16
-7.879834653e-16
-7.91497382e-16
-7.940035392e-16
-7.955035528e-16
-3.980833612e-16
4.778622399e-09
1.445189306e-07
2.743097496e-08
7.336129287e-08
-1.248748616e-08
-6.329363168e-07
1.136908651e-06
-9.095560372e-07
1.649976967e-07
-2.988851199e-17
-6.338707969e-17
-9.734623917e-17
-1.298204013e-16
-1.618259232e-16
-1.934862572e-16
-2.24756921e-16
-2.555764653e-16
-2.858864479e-16
-3.156338432e-16
-3.447687633e-16
-3.73242184e-16
-4.01006561e-16
-4.280182815e-16
-4.542376364e-16
-4.796283543e-16
-5.041569488e-16
-5.277931198e-16
-5.505099398e-16
-5.722840371e-16
-5.930953187e-16
-6.129267631e-16
-6.317641189e-16
-6.495957195e-16
-6.664123642e-16
-6.822070684e-16
-6.969750011e-16
-7.107131998e-16
-7.234203815e-16
-7.350965138e-16
-7.45742798e-16
-7.553612722e-16
-7.639545291e-16
-7.715256127e-16
-7.780776887e-16
-7.836139552e-16
-7.881373842e-16
-7.916506449e-16
-7.941559519e-16
-7.95654918e-16
-3.981493062e-16
-1.362349466e-07
8.794882977e-10
4.413201577e-08
1.440769864e-07
7.730154474e-08
-8.969915773e-07
9.853799617e-07
9.693431813e-07
-3.069521122e-08
-2.989723936e-17
-6.344064503e-17
-9.736126932e-17
-1.298410712e-16
-1.618550018e-16
-1.935230192e-16
-2.247993757e-16
-2.556245321e-16
-2.859408001e-16
-3.156946769e-16
-3.448356877e-16
-3.733146953e-16
-4.010845222e-16
-4.281014728e-16
-4.543257413e-16
-4.797208949e-16
-5.042536024e-16
-5.278936282e-16
-5.506140895e-16
-5.7239167e-16
-5.932062176e-16
-6.130407777e-16
-6.318809823e-16
-6.497152746e-16
-6.665343575e-16
-6.823312999e-16
-6.971012375e-16
-7.108412409e-16
-7.235499013e-16
-7.352273369e-16
-7.458746574e-16
-7.554938791e-16
-7.640876603e-16
-7.716590188e-16
-7.782111281e-16
-7.83747217e-16
-7.882702634e-16
-7.917829577e-16
-7.942874583e-16
-7.957854136e-16
-3.982036165e-16
-2.44719546e-07
-2.001104998e-07
-1.415163684e-07
1.274471865e-07
3.653922383e-07
-7.710971237e-07
1.481289306e-07
1.538923575e-06
6.000426966e-08
-2.988944887e-17
-6.347478891e-17
-9.736996075e-17
-1.298564952e-16
-1.618783746e-16
-1.93552834e-16
-2.248335264e-16
-2.556632667e-16
-2.859846225e-16
-3.157437763e-16
-3.448897446e-16
-3.733732747e-16
-4.011474169e-16
-4.281686509e-16
-4.54397027e-16
-4.797959537e-16
-5.043321455e-16
-5.279753025e-16
-5.506988152e-16
-5.724792692e-16
-5.932965523e-16
-6.131336864e-16
-6.319763877e-16
-6.498129459e-16
-6.666341703e-16
-6.824330492e-16
-6.972047501e-16
-7.109462896e-16
-7.236563154e-16
-7.353348634e-16
-7.459830995e-16
-7.556030414e-16
-7.641972962e-16
-7.717689523e-16
-7.78321119e-16
-7.838570692e-16
-7.88379761e-16
-7.918918976e-16
-7.943956939e-16
-7.958927714e-16
-3.982451808e-16
-2.637027896e-07
-3.165733252e-07
-4.479579834e-07
-1.693688608e-07
6.017312499e-07
-1.332499964e-07
-9.808265622e-07
7.882454049e-07
1.288107223e-07
-2.98807317e-17
-6.348082449e-17
-9.737043061e-17
-1.298666361e-16
-1.618961574e-16
-1.935754468e-16
-2.248591267e-16
-2.55692295e-16
-2.860173913e-16
-3.157804166e-16
-3.449300448e-16
-3.7341689e-16
-4.011942051e-16
-4.282186482e-16
-4.544501505e-16
-4.79852089e-16
-5.043909861e-16
-5.280366724e-16
-5.507625157e-16
-5.725451914e-16
-5.933646706e-16
-6.132038805e-16
-6.320485239e-16
-6.498869563e-16
-6.667098964e-16
-6.825103863e-16
-6.972835638e-16
-7.110263955e-16
-7.237375906e-16
-7.354171282e-16
-7.460661532e-16
-7.556866991e-16
-7.642813867e-16
-7.718532662e-16
-7.784055134e-16
-7.839413441e-16
-7.884637606e-16
-7.919754199e-16
-7.944785688e-16
-7.959747951e-16
-3.982731086e-16
-1.814278215e-07
-2.023917605e-07
-5.722758078e-07
-5.946278364e-07
5.001740353e-07
8.822775392e-07
-1.225378466e-06
4.003554165e-08
1.573609972e-07
-2.987687031e-17
-6.346537074e-17
-9.736251324e-17
-1.298695178e-16
-1.619067601e-16
-1.935899576e-16
-2.248758344e-16
-2.557112353e-16
-2.86038482e-16
-3.158038235e-16
-3.449557706e-16
-3.734446827e-16
-4.012239808e-16
-4.282504162e-16
-4.544840328e-16
-4.798880224e-16
-5.04428784e-16
-5.280762773e-16
-5.508037537e-16
-5.725880333e-16
-5.934090524e-16
-6.132497478e-16
-6.320958531e-16
-6.499356691e-16
-6.667599182e-16
-6.825616579e-16
-6.97335948e-16
-7.110798565e-16
-7.237919399e-16
-7.354722455e-16
-7.46121946e-16
-7.557430067e-16
-7.643380466e-16
-7.719101343e-16
-7.784624421e-16
-7.839981738e-16
-7.885202896e-16
-7.920315432e-16
-7.945341017e-16
-7.960296461e-16
-3.982865437e-16
-6.576628133e-08
1.004259877e-07
-3.391695099e-07
-7.354626194e-07
6.660335364e-08
1.337539178e-06
-8.167265202e-07
-1.540699256e-07
1.691738691e-07
-2.987317326e-17
-6.344495839e-17
-9.735137611e-17
-1.298639691e-16
-1.619076099e-16
-1.935943414e-16
-2.248825268e-16
-2.557192559e-16
-2.860471709e-16
-3.158131975e-16
-3.449659298e-16
-3.734557274e-16
-4.012358199e-16
-4.282631248e-16
-4.544976915e-16
-4.799027063e-16
-5.044445014e-16
-5.28092901e-16
-5.508213126e-16
-5.726064966e-16
-5.934284089e-16
-6.132700073e-16
-6.321170193e-16
-6.499577049e-16
-6.667828381e-16
-6.825853421e-16
-6.973604524e-16
-7.111050587e-16
-7.238178124e-16
-7.354987437e-16
-7.461488997e-16
-7.557703229e-16
-7.643656515e-16
-7.719379042e-16
-7.784902248e-16
-7.840258625e-16
-7.885477888e-16
-7.920586751e-16
-7.9456074e-16
-7.960556397e-16
-3.98284799e-16
9.919366088e-09
4.110763278e-07
1.220487244e-07
-3.685801406e-07
-1.087355109e-07
1.29208497e-06
-1.330349524e-07
1.475283975e-07
1.5967548e-07
-2.986452187e-17
-6.343156791e-17
-9.734607048e-17
-1.298535474e-16
-1.618986674e-16
-1.935873489e-16
-2.248778711e-16
-2.557152124e-16
-2.860426651e-16
-3.158078622e-16
-3.449599287e-16
-3.734491478e-16
-4.012288547e-16
-4.282558727e-16
-4.544903068e-16
-4.798952864e-16
-5.044371039e-16
-5.280856013e-16
-5.508141468e-16
-5.725994906e-16
-5.934216439e-16
-6.132635128e-16
-6.321108462e-16
-6.499518868e-16
-6.66777359e-16
-6.825803102e-16
-6.9735578e-16
-7.1110081e-16
-7.238139466e-16
-7.354951904e-16
-7.461456783e-16
-7.557673739e-16
-7.64362872e-16
-7.719351944e-16
-7.784875746e-16
-7.840231047e-16
-7.885448478e-16
-7.920554434e-16
-7.945570759e-16
-7.960514633e-16
-3.982673888e-16
3.087598691e-08
5.83190648e-07
5.05452489e-07
1.597519904e-07
6.525474125e-08
1.0784279e-06
3.416787372e-07
5.736477682e-07
1.421703725e-07
-2.985368522e-17
-6.342515835e-17
-9.735030053e-17
-1.298436185e-16
-1.61883145e-16
-1.935701032e-16
-2.248614563e-16
-2.556981327e-16
-2.860240867e-16
-3.157874035e-16
-3.449374304e-16
-3.734246568e-16
-4.012025581e-16
-4.282280583e-16
-4.544611799e-16
-4.798650074e-16
-5.04405864e-16
-5.280535436e-16
-5.507814275e-16
-5.725661908e-16
-5.93387881e-16
-6.132293919e-16
-6.320764384e-16
-6.499172592e-16
-6.667426234e-16
-6.825455139e-16
-6.97321008e-16
-7.110660725e-16
-7.23779288e-16
-7.354606619e-16
-7.461112633e-16
-7.55733069e-16
-7.643286715e-16
-7.719010401e-16
-7.784533613e-16
-7.83988829e-16
-7.885104015e-16
-7.920207767e-16
-7.945220908e-16
-7.96016056e-16
-3.982338978e-16
1.59356345e-08
5.936356347e-07
6.680093808e-07
5.086104389e-07
3.670637922e-07
8.993023983e-07
4.38136799e-07
4.790031977e-07
1.016069059e-07
-2.98491691e-17
-6.342052007e-17
-9.735948408e-17
-1.298364386e-16
-1.618641017e-16
-1.935448831e-16
-2.248341495e-16
-2.556678106e-16
-2.859907169e-16
-3.157512028e-16
-3.448980816e-16
-3.733820053e-16
-4.011567211e-16
-4.281792757e-16
-4.544098464e-16
-4.798114067e-16
-5.043502846e-16
-5.279962138e-16
-5.507225553e-16
-5.72505994e-16
-5.933264718e-16
-6.131669592e-16
-6.320130845e-16
-6.498531613e-16
-6.666778961e-16
-6.824802662e-16
-6.972553808e-16
-7.11000126e-16
-7.237131867e-16
-7.353944121e-16
-7.460449351e-16
-7.556666846e-16
-7.64262263e-16
-7.718345889e-16
-7.783868967e-16
-7.839222677e-16
-7.884437592e-16
-7.919539217e-16
-7.944550517e-16
-7.959486738e-16
-3.981840934e-16
-1.265255465e-08
4.896191044e-07
6.127968528e-07
5.445419813e-07
5.190199669e-07
7.042324255e-07
2.958290141e-07
-1.248064814e-07
6.447838819e-08
-2.985628125e-17
-6.341488806e-17
-9.736431328e-17
-1.298298966e-16
-1.618426123e-16
-1.935133639e-16
-2.247967666e-16
-2.556248957e-16
-2.859427314e-16
-3.156987706e-16
-3.448413595e-16
-3.733208377e-16
-4.010911134e-16
-4.281094647e-16
-4.54336129e-16
-4.797342321e-16
-5.042700475e-16
-5.279132554e-16
-5.506371603e-16
-5.724184749e-16
-5.932370638e-16
-6.1307585e-16
-6.319204396e-16
-6.49759178e-16
-6.665827754e-16
-6.823841552e-16
-6.971584464e-16
-7.10902594e-16
-7.236151219e-16
-7.352959816e-16
-7.459462347e-16
-7.555677851e-16
-7.6416323e-16
-7.717354805e-16
-7.782876894e-16
-7.838230099e-16
-7.883443869e-16
-7.918544729e-16
-7.94355433e-16
-7.95848891e-16
-3.981179745e-16
-3.357553679e-08
3.5302598e-07
4.409126219e-07
3.409092661e-07
3.399113071e-07
3.266680306e-07
5.498655549e-08
-6.182829501e-07
1.37221904e-07
-2.987138208e-17
-6.340992904e-17
-9.735370094e-17
-1.298168084e-16
-1.618166749e-16
-1.934756784e-16
-2.247494904e-16
-2.555697509e-16
-2.858806955e-16
-3.156305139e-16
-3.44767199e-16
-3.732409003e-16
-4.010055036e-16
-4.280184397e-16
-4.542400507e-16
-4.796334943e-16
-5.041651108e-16
-5.2780459e-16
-5.505252046e-16
-5.723035542e-16
-5.931194809e-16
-6.129558734e-16
-6.31798347e-16
-6.496351745e-16
-6.664570759e-16
-6.822570244e-16
-6.970301069e-16
-7.10773246e-16
-7.234849744e-16
-7.351652221e-16
-7.458150351e-16
-7.554362514e-16
-7.640314466e-16
-7.716035258e-16
-7.781556379e-16
-7.836908942e-16
-7.882122202e-16
-7.917222681e-16
-7.942231589e-16
-7.957165833e-16
-3.980355647e-16
-4.457804994e-08
2.243701907e-07
2.430479404e-07
7.562951402e-08
-6.074065361e-08
-1.835473339e-07
-1.314013167e-07
-5.682440376e-07
3.549079031e-07
-2.988362929e-17
-6.340780818e-17
-9.732036647e-17
-1.297890335e-16
-1.617817687e-16
-1.934304205e-16
-2.246919503e-16
-2.555021976e-16
-2.858048254e-16
-3.155467716e-16
-3.446758645e-16
-3.731422673e-16
-4.008999577e-16
-4.279062829e-16
-4.541216451e-16
-4.795092846e-16
-5.040356206e-16
-5.276703838e-16
-5.503867571e-16
-5.721613067e-16
-5.929738567e-16
-6.128071633e-16
-6.316468657e-16
-6.494812227e-16
-6.663009356e-16
-6.820990139e-16
-6.968704806e-16
-7.106122896e-16
-7.233229584e-16
-7.350023453e-16
-7.456514742e-16
-7.552722152e-16
-7.638670764e-16
-7.714389563e-16
-7.779909432e-16
-7.835261112e-16
-7.880474463e-16
-7.915575114e-16
-7.940584506e-16
-7.955518903e-16
-3.979371743e-16
-5.074900112e-08
1.027453504e-07
4.135777837e-08
-1.509050866e-07
-3.940671665e-07
-4.135323577e-07
-1.093410531e-07
1.850031718e-07
4.387306643e-07
-2.988252372e-17
-6.3414465e-17
-9.727245536e-17
-1.297469053e-16
-1.61736176e-16
-1.933759831e-16
-2.246239855e-16
-2.554223153e-16
-2.857150119e-16
-3.154476149e-16
-3.445675602e-16
-3.730252659e-16
-4.007747088e-16
-4.277732378e-16
-4.539812111e-16
-4.793619772e-16
-5.038819556e-16
-5.275109848e-16
-5.502221866e-16
-5.719921107e-16
-5.92800499e-16
-6.126300415e-16
-6.314663962e-16
-6.492977101e-16
-6.661147491e-16
-6.819105179e-16
-6.966799704e-16
-7.104201484e-16
-7.23129422e-16
-7.34807723e-16
-7.454560468e-16
-7.550761713e-16
-7.636706136e-16
-7.712421948e-16
-7.777940302e-16
-7.833291445e-16
-7.878505198e-16
-7.913606408e-16
-7.93861739e-16
-7.953553583e-16
-3.978231128e-16
-5.163105138e-08
-1.328572694e-08
-1.641012713e-07
-3.423933085e-07
-4.664259164e-07
-5.683971579e-08
2.045204065e-08
1.144704736e-06
1.856474931e-07
-2.986237326e-17
-6.341347746e-17
-9.72152366e-17
-1.296915379e-16
-1.616792565e-16
-1.933102848e-16
-2.245450603e-16
-2.553304163e-16
-2.85611499e-16
-3.153330584e-16
-3.444424311e-16
-3.728900916e-16
-4.006301035e-16
-4.276197116e-16
-4.538192171e-16
-4.791920018e-16
-5.037046338e-16
-5.273269303e-16
-5.500320871e-16
-5.7179655e-16
-5.925999931e-16
-6.124251434e-16
-6.312574786e-16
-6.49085253e-16
-6.658991381e-16
-6.816921146e-16
-6.96459259e-16
-7.101974492e-16
-7.229051459e-16
-7.345821739e-16
-7.452294644e-16
-7.548488642e-16
-7.634427347e-16
-7.710140208e-16
-7.775656772e-16
-7.831007988e-16
-7.876221945e-16
-7.911324997e-16
-7.936338138e-16
-7.951277105e-16
-3.976939812e-16
-4.202932265e-08
-1.021939828e-07
-3.354377305e-07
-4.892734032e-07
-2.355951005e-07
7.524792182e-07
-3.907086524e-07
1.323143035e-06
-3.18639355e-07
-2.982851718e-17
-6.33995342e-17
-9.716288328e-17
-1.296303534e-16
-1.616128256e-16
-1.932327141e-16
-2.244543762e-16
-2.552264975e-16
-2.854945398e-16
-3.15203482e-16
-3.443007674e-16
-3.727371688e-16
-4.004666396e-16
-4.274462448e-16
-4.5363626e-16
-4.790000422e-16
-5.035043258e-16
-5.2711897e-16
-5.498171796e-16
-5.715753692e-16
-5.923731939e-16
-6.1219321e-16
-6.310209825e-16
-6.488446673e-16
-6.656549478e-16
-6.814448099e-16
-6.962092635e-16
-7.099451874e-16
-7.226510121e-16
-7.343265483e-16
-7.449727241e-16
-7.54591248e-16
-7.63184589e-16
-7.707554709e-16
-7.773069608e-16
-7.828420341e-16
-7.873635704e-16
-7.908740924e-16
-7.933756828e-16
-7.94869998e-16
-3.9755036e-16
-2.216366115e-08
-1.382139647e-07
-3.995236404e-07
-4.903300575e-07
1.708740079e-07
1.545463104e-06
-9.139147276e-07
3.074218585e-07
-4.951703695e-07
-2.979427074e-17
-6.33593651e-17
-9.712388287e-17
-1.295732754e-16
-1.615414753e-16
-1.931452208e-16
-2.243523188e-16
-2.551105063e-16
-2.853643656e-16
-3.150592323e-16
-3.4414317e-16
-3.725671091e-16
-4.002849433e-16
-4.272535305e-16
-4.534330348e-16
-4.787868882e-16
-5.032818681e-16
-5.268879672e-16
-5.495783957e-16
-5.713295678e-16
-5.92120997e-16
-6.119353184e-16
-6.307579537e-16
-6.485770342e-16
-6.653833125e-16
-6.811696706e-16
-6.959311282e-16
-7.096645358e-16
-7.223683001e-16
-7.340421746e-16
-7.446870743e-16
-7.543046656e-16
-7.628973245e-16
-7.70467833e-16
-7.770191324e-16
-7.825542073e-16
-7.870758698e-16
-7.905866767e-16
-7.930886838e-16
-7.945834586e-16
-3.973930486e-16
4.351843157e-09
-1.195812044e-07
-3.414783319e-07
-3.362415203e-07
4.292781313e-07
1.536064839e-06
-1.3279348e-06
-1.142705165e-06
-1.462208711e-07
-2.977499044e-17
-6.327893197e-17
-9.708178753e-17
-1.295169892e-16
-1.614653391e-16
-1.930495187e-16
-2.242398504e-16
-2.549826189e-16
-2.852210928e-16
-3.149007518e-16
-3.43970238e-16
-3.723806797e-16
-4.000857969e-16
-4.270423692e-16
-4.532103815e-16
-4.785534193e-16
-5.030382411e-16
-5.266349695e-16
-5.493168272e-16
-5.710602147e-16
-5.918446453e-16
-6.116526048e-16
-6.304695873e-16
-6.482836512e-16
-6.650854957e-16
-6.808679934e-16
-6.956261811e-16
-7.093568382e-16
-7.220583424e-16
-7.337304512e-16
-7.443739336e-16
-7.539905033e-16
-7.625824826e-16
-7.701525639e-16
-7.76703665e-16
-7.822387852e-16
-7.867606557e-16
-7.902718089e-16
-7.927742588e-16
-7.942696296e-16
-3.972228664e-16
4.463131118e-08
-1.883991159e-08
-1.313280193e-07
-9.028598263e-08
5.105101166e-07
1.033857938e-06
-8.775066487e-07
-2.028306787e-06
6.20246911e-08
-2.977137726e-17
-6.320343259e-17
-9.703236161e-17
-1.294548276e-16
-1.613818061e-16
-1.929455815e-16
-2.241177126e-16
-2.548433693e-16
-2.850651234e-16
-3.147286137e-16
-3.437827137e-16
-3.721786804e-16
-3.99870114e-16
-4.268136791e-16
-4.529693571e-16
-4.783006534e-16
-5.027745457e-16
-5.263611193e-16
-5.490336767e-16
-5.707686114e-16
-5.915453764e-16
-6.113464687e-16
-6.301572877e-16
-6.479659231e-16
-6.647629432e-16
-6.805413069e-16
-6.952959776e-16
-7.090236674e-16
-7.217227776e-16
-7.333929352e-16
-7.440349669e-16
-7.536504363e-16
-7.62241692e-16
-7.698113362e-16
-7.763623056e-16
-7.818974557e-16