/*--------------------------------*- C++ -*----------------------------------*\
  =========                 |
  \\      /  F ield         | OpenFOAM: The Open Source CFD Toolbox
   \\    /   O peration     | Website:  https://openfoam.org
    \\  /    A nd           | Version:  6
     \\/     M anipulation  |
\*---------------------------------------------------------------------------*/
FoamFile
{
    version     2.0;
    format      ascii;
    class       volScalarField;
    location    "0.11";
    object      p_rgh;
}
// * * * * * * * * * * * * * * * * * * * * * * * * * * * * * * * * * * * * * //

dimensions      [1 -1 -2 0 0 0 0];

internalField   nonuniform List<scalar> 
2500
(
0.5110903853
0.3442504348
0.2861858856
0.2400691697
0.2414677866
0.2692251186
0.2833382977
0.3114194671
27276.41476
27374.47525
27471.45296
27566.77296
27659.67906
27749.49947
27835.66253
27917.7068
27995.2848
28068.1607
28136.20336
28199.37577
28257.72235
28311.35528
28360.44074
28405.1858
28445.82658
28482.61778
28515.82383
28545.7116
28572.54459
28596.57852
28618.05801
28637.21428
28654.26374
28669.40712
28682.8292
28694.69891
28705.1697
28714.38011
28722.45449
28729.5038
28735.62635
28740.90868
28745.42627
28749.24432
28752.41836
28754.99487
28757.01179
28758.49893
28759.47835
28759.96455
0.2825651837
0.2593284597
0.228705647
0.2118256998
0.2208203128
0.2466844417
0.2641207182
0.2692954075
27276.38425
27375.31562
27473.11126
27569.18651
27662.76432
27753.15641
27839.78089
27922.1727
27999.98658
28072.99372
28141.07348
28204.20155
28262.43605
28315.90291
28364.78136
28409.29038
28449.67654
28486.20337
28519.14261
28548.7669
28575.34422
28599.13357
28620.38184
28639.32175
28656.17049
28671.12911
28684.38228
28696.09855
28706.4308
28715.51686
28723.48032
28730.4313
28736.46733
28741.67417
28746.12658
28749.8891
28753.01666
28755.55524
28757.54233
28759.00744
28759.97236
28760.45152
0.118121321
0.201586879
0.2138165451
0.220933712
0.2276200927
0.2476366577
0.2598674363
0.2508532064
27276.37687
27377.03949
27476.49043
27574.09724
27669.03501
27760.58063
27848.13166
27931.21634
28009.49498
28082.75411
28150.89542
28213.92113
28271.91775
28325.03942
28373.49199
28417.51852
28457.38657
28493.37741
28525.77723
28554.87014
28580.93286
28604.23076
28625.01515
28643.52152
28659.96855
28674.55773
28687.47347
28698.88346
28708.93934
28717.7775
28725.51991
28732.27505
28738.13882
28743.19541
28747.51814
28751.17018
28754.2053
28756.66844
28758.59624
28760.01749
28760.95349
28761.41828
0.00360996939
0.1545526934
0.1992629716
0.2354934123
0.2500142856
0.2634527703
0.2691528084
0.2602867879
27276.39191
27379.71081
27481.71402
27581.67665
27678.69743
27771.99902
27860.94839
27945.06573
28024.02268
28097.63225
28165.83298
28228.66997
28286.27469
28338.84542
28386.62915
28429.90574
28468.9745
28504.14322
28535.71956
28564.00443
28589.28721
28611.8424
28631.92746
28649.78164
28665.62548
28679.66086
28692.07148
28703.02356
28712.66672
28721.13502
28728.5479
28735.01131
28740.61864
28745.45169
28749.58154
28753.06936
28755.9671
28758.31817
28760.15789
28761.514
28762.40701
28762.85045
-0.07365589406
0.1145762082
0.183722568
0.251755013
0.2785073559
0.27580196
0.2789798783
0.2730151998
27276.41353
27383.43211
27488.97845
27592.19743
27692.07849
27787.76909
27878.59668
27964.07513
28043.89751
28117.91909
28186.13432
28248.65124
28305.66592
28357.43883
28404.27397
28446.5014
28484.46314
28518.50217
28548.95417
28576.14167
28600.37007
28621.92511
28641.07163
28658.05311
28673.09189
28686.38979
28698.12909
28708.47364
28717.57007
28725.54905
28732.52649
28738.60479
28743.87389
28748.41231
28752.28813
28755.55976
28758.27676
28760.48041
28762.20431
28763.47479
28764.31129
28764.72665
-0.1120673174
0.06818595147
0.1508046328
0.2521479925
0.2917244022
0.2902129292
0.2883980172
0.2851926898
27276.43709
27388.35334
27498.57035
27606.05548
27709.64931
27808.40147
27901.5935
27988.7401
28069.5728
28144.01212
28212.13399
28274.13491
28330.29925
28380.97046
28426.52704
28467.36339
28503.87523
28536.44893
28565.45412
28591.23892
28614.1272
28634.41729
28652.38181
28668.26829
28682.3002
28694.67837
28705.58253
28715.17293
28723.59197
28730.96571
28737.40534
28743.0086
28747.86094
28752.03669
28755.60005
28758.60597
28761.10093
28763.12358
28764.70532
28765.87071
28766.6379
28767.01882
-0.10998247
0.02146780154
0.1001568393
0.2271189623
0.2965028074
0.3108431947
0.2917959876
0.2999656888
27276.45975
27394.68754
27510.89413
27623.80392
27732.06084
27834.59305
27930.63494
28019.71835
28101.64105
28176.42243
28244.25462
28305.45535
28360.42606
28409.61722
28453.50095
28492.5506
28527.22624
28557.96503
28585.17533
28609.23361
28630.48348
28649.23601
28665.77105
28680.33906
28693.16329
28704.442
28714.35078
28723.04468
28730.66027
28737.31757
28743.12169
28748.16446
28752.52572
28756.2746
28759.47055
28762.16429
28764.39856
28766.20883
28767.62383
28768.66602
28769.35195
28769.6925
-0.07943897784
-0.009786436879
0.04976978001
0.1820817657
0.2883953212
0.3180006544
0.2914907743
0.3139386769
27276.48915
27402.73915
27526.51452
27646.20397
27760.19572
27867.27368
27966.63382
28057.85651
28140.85013
28215.7817
28283.00676
28343.00604
28396.33285
28443.57198
28485.30963
28522.11258
28554.51493
28583.01052
28608.04947
28630.03766
28649.33807
28666.27322
28681.12832
28694.15465
28705.57294
28715.57664
28724.33499
28731.9958
28738.68796
28744.5237
28749.60052
28754.00294
28757.804
28761.06657
28763.84443
28766.18324
28768.12136
28769.69051
28770.91632
28771.81876
28772.41255
28772.70734
-0.0362676561
-0.01202107593
0.0206786888
0.1274024425
0.2470989014
0.2979800481
0.3039701556
0.3183517988
27276.5414
27412.9432
27546.22032
27674.2999
27795.24251
27907.67046
28010.7688
28104.22278
28188.12067
28262.84727
28328.98476
28387.22956
28438.32784
28483.0289
28522.05378
28556.07601
28585.7113
28611.51358
28633.97533
28653.5305
28670.55893
28685.3915
28698.3154
28709.57933
28719.39823
28727.95769
28735.41781
28741.91665
28747.57318
28752.48986
28756.75486
28760.4439
28763.62192
28766.34439
28768.65849
28770.60402
28772.21429
28773.5167
28774.53332
28775.28133
28775.77332
28776.01755
-0.01307837161
-0.002372417818
0.01290008827
0.07878945945
0.1787213416
0.254174048
0.3126431134
0.2703121501
27276.5915
27425.92932
27571.12239
27709.53013
27838.80133
27957.39458
28064.54639
28160.14398
28244.56189
28318.50179
28382.85565
28438.60008
28486.72074
28528.1628
28563.80147
28594.42734
28620.74166
28643.35819
28662.80881
28679.55111
28693.97669
28706.41947
28717.16352
28726.4501
28734.48403
28741.43914
28747.46299
28752.68089
28757.19934
28761.10882
28764.48625
28767.397
28769.89651
28772.03173
28773.84224
28775.36122
28776.61623
28777.62983
28778.42011
28779.00108
28779.383
28779.57259
-0.01103819488
0.005465452638
0.01449758565
0.04689862769
0.1124889192
0.1871837657
0.2525853426
0.119764382
27276.9622
27442.67505
27602.80708
27753.893
27893.0344
28018.55711
28129.87606
28227.24352
28311.48056
28383.74231
28445.3364
28497.59506
28541.79313
28579.10107
28610.56305
28637.09132
28659.47091
28678.3698
28694.3517
28707.88952
28719.37832
28729.14726
28737.47015
28744.57457
28750.64971
28755.85292
28760.31518
28764.14568
28767.43555
28770.26091
28772.68544
28774.76245
28776.53652
28778.04491
28779.31866
28780.38354
28781.26073
28781.96743
28782.51735
28782.92104
28783.18618
28783.31781
-0.01265584148
0.003817467103
0.0146176923
0.02575107858
0.06961701163
0.1106908421
0.09708420766
-0.09816417665
27278.3743
27464.51664
27643.53268
27810.19442
27960.88091
28093.91945
28209.15464
28307.47215
28390.37411
28459.65079
28517.1533
28564.65165
28603.75679
28635.88657
28662.25957
28683.90521
28701.68208
28716.29959
28728.33983
28738.27806
28746.5009
28753.32219
28758.99632
28763.72939
28767.68839
28771.0087
28773.8002
28776.15219
28778.13734
28779.81491
28781.23326
28782.43195
28783.44332
28784.29383
28785.00509
28785.59469
28786.07686
28786.46297
28786.76198
28786.9807
28787.12405
28787.19522
-0.01714438284
-0.006294410334
0.005178966242
0.003382433955
0.03731447065
0.03589739614
-0.1002468497
-0.2607433747
27277.21547
27492.80769
27696.60097
27882.4615
28046.36796
28187.08018
28305.34808
28403.11522
28482.89301
28547.33425
28598.97561
28640.10292
28672.69736
28698.43035
28718.68492
28734.58926
28747.05393
28756.80789
28764.43118
28770.38313
28775.02615
28778.64537
28781.46463
28783.65936
28785.36682
28786.69436
28787.72581
28788.5266
28789.1478
28789.62921
28790.00184
28790.28987
28790.5121
28790.68313
28790.81431
28790.91441
28790.99017
28791.04676
28791.08804
28791.11687
28791.13524
28791.1444
-0.02531254717
-0.02063828823
-0.01393894962
-0.02044525643
-0.01171244977
-0.04509089183
-0.2469621884
-0.1315716448
27278.03745
27531.92639
27767.5874
27976.66891
28155.03947
28302.6795
28422.0397
28516.74727
28590.7494
28647.81925
28691.31394
28724.0891
28748.50136
28766.45441
28779.46221
28788.71456
28795.13791
28799.44819
28802.19512
28803.79832
28804.57633
28804.76961
28804.55856
28804.07763
28803.42623
28802.67716
28801.88311
28801.08167
28800.29911
28799.55335
28798.85612
28798.21469
28797.63317
28797.11339
28796.65573
28796.25958
28795.9238
28795.64699
28795.42771
28795.26466
28795.15678
28795.10332
-0.03762140383
-0.03701577309
-0.03684290813
-0.04630682978
-0.06862687983
-0.1328018551
-0.2834988577
0.3915438832
27280.40403
27587.90875
27865.12943
28101.56685
28294.42936
28446.553
28563.38262
28651.08593
28715.54051
28761.88233
28794.37475
28816.44094
28830.76704
28839.42592
28843.99687
28845.67057
28845.33648
28843.65323
28841.10406
28838.03987
28834.71237
28831.29925
28827.92342
28824.66742
28821.58435
28818.70597
28816.04885
28813.6189
28811.41469
28809.43002
28807.65565
28806.0807
28804.69358
28803.48265
28802.43675
28801.54551
28800.79959
28800.19081
28799.71227
28799.35842
28799.12504
28799.00934
-0.05336276388
-0.05550042319
-0.06026720674
-0.07477596245
-0.09199649736
-0.194718185
-0.2156645576
1.176992626
27286.64112
27672.34848
28003.41691
28270.01173
28474.54522
28625.71712
28733.85356
28808.67734
28858.44912
28889.79941
28907.86593
28916.53645
28918.70294
28916.48789
28911.43091
28904.63616
28896.88577
28888.72557
28880.52926
28872.54592
28864.93511
28857.79265
28851.16947
28845.08531
28839.53878
28834.51453
28829.98845
28825.9314
28822.31178
28819.09743
28816.25683
28813.75997
28811.57888
28809.68797
28808.06421
28806.68725
28805.53936
28804.60552
28803.8733
28803.33283
28802.97676
28802.80023
-0.07149715134
-0.07552736999
-0.08150759729
-0.09876300944
-0.1030660648
-0.2162733618
-0.1103122181
1.861245699
27307.20802
27809.10156
28206.1222
28500.48659
28708.01468
28847.91992
28937.64471
28991.32923
29019.78703
29031.00694
29030.75854
29023.14031
29011.02383
28996.39455
28980.60495
28964.55924
28948.84641
28933.83539
28919.74271
28906.68054
28894.69055
28883.7678
28873.87747
28864.96655
28856.97192
28849.82591
28843.46003
28837.80746
28832.80462
28828.39212
28824.51531
28821.12452
28818.17507
28815.62722
28813.44599
28811.601
28810.0662
28808.81974
28807.84369
28807.12396
28806.65008
28806.41515
-0.09165963504
-0.09669465152
-0.103975147
-0.1222755507
-0.1316527843
-0.1803677053
-0.09075551948
2.039414767
27384.94093
28047.87557
28511.42446
28817.78078
29009.11591
29120.31986
29177.49305
29199.22225
29198.37431
29183.69153
29161.02758
29134.24735
29105.86124
29077.46434
29050.03728
29024.15119
29000.10671
28978.0281
28957.92675
28939.744
28923.37973
28908.71148
28895.607
28883.93243
28873.55737
28864.3581
28856.21926
28849.03478
28842.70811
28837.15213
28832.28882
28828.04878
28824.37073
28821.20092
28818.49263
28816.20565
28814.30582
28812.76465
28811.5589
28810.67037
28810.08559
28809.79569
-0.1131286861
-0.1180291535
-0.1264792063
-0.1394552343
-0.1557254135
-0.1515448469
-0.2515849715
1.515749048
27657.33026
28482.64249
28973.92765
29250.13252
29390.39238
29446.78833
29452.81425
29429.71338
29390.81125
29344.36765
29295.42013
29246.96534
29200.71306
29157.56691
29117.93061
29081.90307
29049.4024
29020.24461
28994.19318
28970.98989
28950.37375
28932.09223
28915.90751
28901.59966
28888.96794
28877.83077
28868.02507
28859.40525
28851.84189
28845.22047
28839.44007
28834.4121
28830.0592
28826.31417
28823.11903
28820.42423
28818.1879
28816.37523
28814.95801
28813.91414
28813.22734
28812.88689
-0.134933146
-0.1394340253
-0.1494775333
-0.1597455263
-0.1895862078
-0.1609527676
-0.3314541154
0.5148181603
28410.66623
29247.71152
29651.71387
29818.56468
29855.62591
29823.68837
29757.30212
29676.03144
29590.80615
29507.55831
29429.32686
29357.48535
29292.46178
29234.16172
29182.21672
29136.12924
29095.35615
29059.35561
29027.61223
28999.64936
28975.03392
28953.37697
28934.33191
28917.59159
28902.88481
28889.97283
28878.64592
28868.72018
28860.03468
28852.44878
28845.83988
28840.10137
28835.14084
28830.87857
28827.24617
28824.18543
28821.64739
28819.59148
28817.98489
28816.80197
28816.02387
28815.63818
-0.1559854809
-0.1606953594
-0.1720030751
-0.1834880416
-0.214462002
-0.1989748034
-0.3459295693
-0.3434531827
29945.60518
30442.5349
30567.09087
30517.01986
30389.9898
30235.11238
30076.71795
29926.32944
29788.83846
29665.74132
29556.84884
29461.19053
29377.48889
29304.40271
29240.64615
29185.04167
29136.53791
29094.20999
29057.25133
29024.96198
28996.73621
28972.05045
28950.45228
28931.55072
28915.00767
28900.53065
28887.86644
28876.79579
28867.1288
28858.70105
28851.37029
28845.01366
28839.52526
28834.81417
28830.80271
28827.42502
28824.62585
28822.35952
28820.58918
28819.28608
28818.42909
28818.00432
-0.175072283
-0.1806908462
-0.1927618154
-0.2091147286
-0.2369827266
-0.2699948228
-0.3637249248
-0.9027865817
32252.45943
32008.1181
31657.58783
31292.67765
30952.32545
30650.11781
30388.16138
30163.74726
29972.48574
29809.72402
29671.13863
29552.93985
29451.90083
29365.3141
29290.9235
29226.8534
29171.54393
29123.69531
29082.22138
29046.2114
29014.89897
28987.63689
28963.87668
28943.15201
28925.06525
28909.27644
28895.49425
28883.46863
28872.9846
28863.85727
28855.92756
28849.05872
28843.13339
28838.05117
28833.72654
28830.08717
28827.07253
28824.63267
28822.72735
28821.3252
28820.4032
28819.94623
-0.190879276
-0.1977397821
-0.2102138817
-0.2328386462
-0.2547859943
-0.3368169879
-0.3212527786
-1.244032827
34871.93342
33681.26752
32762.72219
32043.90472
31476.57431
31024.89643
30662.07122
30368.01412
30127.63197
29929.52813
29765.03947
29627.5273
29511.85875
29414.02802
29330.8794
29259.90385
29199.08871
29146.8058
29101.72754
29062.76345
29029.01172
28999.72191
28974.26606
28952.11601
28932.82558
28916.01635
28901.36631
28888.60071
28877.4846
28867.8168
28859.42491
28852.16125
28845.89944
28840.53162
28835.96615
28832.12567
28828.9455
28826.37239
28824.36344
28822.88527
28821.91339
28821.43172
-0.2020925543
-0.2100047885
-0.2221032622
-0.249055128
-0.2592260141
-0.37179071
-0.2004329908
-1.349714035
37121.00577
35087.41378
33668.00425
32643.58271
31885.12566
31310.78903
30867.18826
30518.58789
30240.48657
30015.70735
29831.95673
29680.266
29553.97515
29448.05719
29358.66036
29282.79263
29218.10044
29162.71117
29115.11934
29074.10319
29038.66275
29007.97333
28981.35011
28958.22097
28938.10536
28920.5978
28905.35473
28892.08414
28880.53717
28870.50132
28861.79499
28854.26291
28847.77249
28842.21076
28837.48184
28833.50491
28830.21249
28827.54903
28825.46984
28823.94015
28822.93447
28822.43606
-0.2078562849
-0.2162965646
-0.2277328568
-0.256079823
-0.2556115767
-0.3735248216
-0.06405970171
-1.273588161
38408.71514
35887.8524
34177.84743
32977.05999
32109.41431
31465.85768
30977.24894
30598.6263
30299.99499
30060.84177
29866.803
29707.59713
29575.71333
29465.56149
29372.90965
29294.50413
29227.8081
29170.81841
29121.93511
29079.86713
29043.5629
29012.15885
28984.94051
28961.31292
28940.77773
28922.91545
28907.37142
28893.84477
28882.07947
28871.85725
28862.99177
28855.32389
28848.71787
28843.0581
28838.24657
28834.20071
28830.85158
28828.1425
28826.02784
28824.47213
28823.44938
28822.94252
-0.2078562758
-0.2162965606
-0.2277328614
-0.2560798405
-0.2556116111
-0.3735248738
-0.06405972634
-1.27358813
38408.71505
35887.85236
34177.84738
32977.05994
32109.41425
31465.85762
30977.24887
30598.62624
30299.99494
30060.84171
29866.80295
29707.59709
29575.7133
29465.56147
29372.90964
29294.50413
29227.80811
29170.81843
29121.93514
29079.86716
29043.56294
29012.1589
28984.94057
28961.31299
28940.7778
28922.91553
28907.37151
28893.84486
28882.07957
28871.85736
28862.99187
28855.324
28848.71798
28843.05821
28838.24669
28834.20083
28830.85171
28828.14262
28826.02796
28824.47226
28823.44951
28822.94265
-0.2020925259
-0.2100047736
-0.222103272
-0.2490551763
-0.2592261272
-0.3717908919
-0.2004331444
-1.349715133
37121.00529
35087.41361
33668.00409
32643.58255
31885.12549
31310.78885
30867.18807
30518.58771
30240.48639
30015.70719
29831.95658
29680.26588
29553.97506
29448.05712
29358.66033
29282.79263
29218.10046
29162.71122
29115.11942
29074.1033
29038.66289
29007.97349
28981.35029
28958.22117
28938.10558
28920.59804
28905.35498
28892.08441
28880.53746
28870.50163
28861.79531
28854.26324
28847.77283
28842.21111
28837.4822
28833.50528
28830.21286
28827.54941
28825.47023
28823.94054
28822.93486
28822.43645
-0.1908792258
-0.1977397479
-0.2102138814
-0.2328387062
-0.2547861865
-0.3368173544
-0.3212534265
-1.244035578
34871.93265
33681.26722
32762.72193
32043.90445
31476.57402
31024.89612
30662.07089
30368.0138
30127.63166
29929.52785
29765.03922
29627.5271
29511.8586
29414.02792
29330.87935
29259.90385
29199.08875
29146.80589
29101.72767
29062.76363
29029.01194
28999.72217
28974.26636
28952.11635
28932.82595
28916.01675
28901.36674
28888.60117
28877.48508
28867.8173
28859.42544
28852.1618
28845.90001
28840.53221
28835.96676
28832.12628
28828.94613
28826.37302
28824.36408
28822.88592
28821.91404
28821.43237
-0.175072208
-0.1806907802
-0.1927617761
-0.2091147487
-0.2369829091
-0.2699952656
-0.3637265463
-0.9027929496
32252.4586
32008.11774
31657.58752
31292.6773
30952.32504
30650.11736
30388.1609
30163.74679
29972.4853
29809.72362
29671.13828
29552.93956
29451.90061
29365.31395
29290.92342
29226.85339
29171.54399
29123.69544
29082.22157
29046.21165
29014.89928
28987.63726
28963.8771
28943.15248
28925.06577
28909.277
28895.49486
28883.46927
28872.98528
28863.85798
28855.9283
28849.05949
28843.13419
28838.052
28833.72739
28830.08804
28827.07341
28824.63357
28822.72825
28821.32611
28820.40412
28819.94715
-0.1559853802
-0.1606952508
-0.1720029667
-0.1834879489
-0.2144619792
-0.1989749123
-0.3459308585
-0.3434588235
29945.60464
30442.53474
30567.09061
30517.01945
30389.98926
30235.11176
30076.71731
29926.3288
29788.83786
29665.74079
29556.84837
29461.19015
29377.48861
29304.40251
29240.64605
29185.04166
29136.53799
29094.21016
29057.25157
29024.96231
28996.73662
28972.05093
28950.45283
28931.55133
28915.00834
28900.53138
28887.86723
28876.79663
28867.12968
28858.70197
28851.37126
28845.01466
28839.52629
28834.81523
28830.8038
28827.42614
28824.62698
28822.36067
28820.59035
28819.28726
28818.43027
28818.0055
-0.1349330211
-0.1394338735
-0.1494773512
-0.1597452931
-0.1895858459
-0.1609520263
-0.3314528233
0.5148275954
28410.66828
29247.71205
29651.71373
29818.56417
29855.62519
29823.68754
29757.30126
29676.0306
29590.80537
29507.55762
29429.32627
29357.48487
29292.46142
29234.16148
29182.2166
29136.12923
29095.35625
29059.35582
29027.61254
28999.64977
28975.03442
28953.37755
28934.33258
28917.59234
28902.88564
28889.97372
28878.64688
28868.72121
28860.03576
28852.44991
28845.84106
28840.10259
28835.14211
28830.87988
28827.24751
28824.1868
28821.64878
28819.5929
28817.98631
28816.80341
28816.02531
28815.63963
-0.1131285376
-0.1180289683
-0.1264789874
-0.1394549573
-0.1557249612
-0.1515437642
-0.2515826354
1.515754576
27657.33189
28482.64292
28973.92734
29250.13176
29390.39137
29446.78722
29452.81312
29429.7123
29390.81027
29344.36679
29295.41941
29246.96476
29200.71262
29157.56662
29117.93047
29081.90306
29049.40252
29020.24486
28994.19355
28970.99037
28950.37435
28932.09294
28915.90831
28901.60056
28888.96893
28877.83183
28868.02622
28859.40647
28851.84317
28845.22182
28839.44147
28834.41355
28830.0607
28826.31571
28823.12062
28820.42585
28818.18955
28816.37691
28814.95971
28813.91585
28813.22906
28812.88861
-0.09165945774
-0.09669443438
-0.1039749315
-0.1222753729
-0.131652709
-0.1803673587
-0.09075490479
2.039419365
27384.94201
28047.8755
28511.42367
28817.77957
29009.11448
29120.31836
29177.49159
29199.2209
29198.3731
29183.69049
29161.02672
29134.24666
29105.86073
29077.464
29050.03711
29024.15119
29000.10686
28978.0284
28957.92719
28939.74457
28923.38043
28908.7123
28895.60794
28883.93347
28873.55852
28864.35934
28856.22059
28849.03619
28842.7096
28837.15369
28832.29045
28828.05047
28824.37248
28821.20271
28818.49447
28816.20753
28814.30774
28812.76659
28811.56087
28810.67235
28810.08758
28809.79769
-0.07149693142
-0.07552708601
-0.08150736084
-0.09876297317
-0.1030666386
-0.2162740217
-0.110312004
1.861242488
27307.2077
27809.10056
28206.12066
28500.48471
28708.01266
28847.91793
28937.64286
28991.32755
29019.78557
29031.0057
29030.75753
29023.13952
29011.02326
28996.39417
28980.60477
28964.55925
28948.8466
28933.83574
28919.74322
28906.6812
28894.69136
28883.76875
28873.87855
28864.96775
28856.97323
28849.82733
28843.46155
28837.80907
28832.80632
28828.3939
28824.51717
28821.12645
28818.17706
28815.62927
28813.44809
28811.60314
28810.06838
28808.82195
28807.84593
28807.12622
28806.65236
28806.41743
-0.05336248025
-0.05549998318
-0.06026678859
-0.07477585108
-0.09199730639
-0.1947193857
-0.2156638834
1.176979793
27286.63897
27672.34643
28003.4144
28270.00897
28474.54247
28625.71455
28733.85124
28808.67532
28858.44739
28889.79798
28907.86478
28916.53555
28918.7023
28916.48749
28911.43073
28904.63619
28896.886
28888.72599
28880.52986
28872.54668
28864.93604
28857.79373
28851.17069
28845.08667
28839.54027
28834.51614
28829.99017
28825.93322
28822.3137
28819.09944
28816.25892
28813.76214
28811.58112
28809.69027
28808.06658
28806.68966
28805.54182
28804.60801
28803.87582
28803.33537
28802.97932
28802.80279
-0.03762103432
-0.03701504774
-0.03684198395
-0.04630607576
-0.06862685635
-0.1328026387
-0.2834988516
0.3915435524
27280.40363
27587.90621
27865.12575
28101.56296
28294.4257
28446.54975
28563.37981
28651.08355
28715.53853
28761.88071
28794.37347
28816.43997
28830.76635
28839.4255
28843.9967
28845.67062
28845.33676
28843.65372
28841.10474
28838.04075
28834.71341
28831.30046
28827.92479
28824.66894
28821.58601
28818.70776
28816.05077
28813.62093
28811.41683
28809.43226
28807.65798
28806.08312
28804.69608
28803.48522
28802.43938
28801.5482
28800.80232
28800.19358
28799.71508
28799.36124
28799.12788
28799.01219
-0.02531208365
-0.0206371543
-0.01393711517
-0.02044315198
-0.01171065423
-0.04509019326
-0.2469623514
-0.1315403364
27278.04179
27531.92237
27767.58162
27976.66342
28155.03475
28302.67555
28422.03641
28516.74456
28590.74719
28647.81747
28691.31255
28724.08806
28748.50063
28766.45398
28779.46205
28788.71466
28795.13825
28799.44876
28802.19591
28803.7993
28804.57751
28804.77096
28804.56009
28804.07932
28803.42808
28802.67915
28801.88524
28801.08392
28800.30148
28799.55582
28798.85869
28798.21737
28797.63593
28797.11623
28796.65864
28796.26255
28795.92682
28795.65004
28795.4308
28795.26778
28795.15991
28795.10646
-0.01714385457
-0.006292815906
0.005181915179
0.003386159854
0.03731775889
0.03589947189
-0.1002454071
-0.2607838494
27277.20974
27492.79562
27696.59105
27882.45395
28046.36215
28187.0756
28305.34441
28403.11227
28482.89063
28547.33236
28598.97415
28640.10184
28672.69663
28698.42994
28718.6848
28734.58942
28747.05434
28756.80855
28764.43207
28770.38424
28775.02746
28778.64688
28781.46633
28783.66122
28785.36886
28786.69655
28787.72814
28788.52907
28789.1504
28789.63193
28790.00467
28790.2928
28790.51512
28790.68624
28790.81749
28790.91766
28790.99348
28791.05011
28791.09143
28791.12029
28791.13867
28791.14785
-0.01265534608
0.0038194011
0.01462139671
0.02575562981
0.0696205918
0.1106928227
0.09708611456
-0.09872627364
27278.29696
27464.48798
27643.51834
27810.18545
27960.87452
28093.91458
28209.15079
28307.46908
28390.37166
28459.64885
28517.15182
28564.65057
28603.75608
28635.88619
28662.2595
28683.90543
28701.68258
28716.30035
28728.34084
28738.2793
28746.50236
28753.32386
28758.99819
28763.73145
28767.69062
28771.0111
28773.80276
28776.15489
28778.14018
28779.81788
28781.23635
28782.43515
28783.44662
28784.29722
28785.00856
28785.59823
28786.08046
28786.46662
28786.76567
28786.98442
28787.12779
28787.19898
-0.0110378944
0.005467368556
0.01450099687
0.04690252423
0.1124918061
0.1871851264
0.2525861331
0.1197618573
27276.9616
27442.6641
27602.79736
27753.88542
27893.02849
28018.55242
28129.87229
28227.24048
28311.47812
28383.74039
28445.33493
28497.59401
28541.79245
28579.10075
28610.56305
28637.09163
28659.47151
28678.37068
28694.35284
28707.8909
28719.37993
28729.1491
28737.4722
28744.57682
28750.65214
28755.85553
28760.31796
28764.14862
28767.43863
28770.26413
28772.68879
28774.76592
28776.54009
28778.04858
28779.32242
28780.38738
28781.26463
28781.97139
28782.52135
28782.92508
28783.19024
28783.32187
-0.01307849067
-0.00237119367
0.01290216335
0.07879186394
0.1787235204
0.2541753373
0.3126437257
0.2703132258
27276.5915
27425.92444
27571.11633
27709.52441
27838.79636
27957.39038
28064.54289
28160.14109
28244.55956
28318.49994
28382.85426
28438.5991
28486.72014
28528.16255
28563.80157
28594.42775
28620.74237
28643.35919
28662.81008
28679.55264
28693.97847
28706.42149
28717.16575
28726.45254
28734.48667
28741.44197
28747.466
28752.68407
28757.20267
28761.1123
28764.48987
28767.40074
28769.90037
28772.03569
28773.8463
28775.36536
28776.62044
28777.6341
28778.42443
28779.00544
28779.38738
28779.57698
-0.03626842163
-0.01202108709
0.02067921573
0.1274039634
0.2471011242
0.2979817848
0.3039713048
0.3183594837
27276.54226
27412.94074
27546.21639
27674.29563
27795.23845
27907.66682
28010.76565
28104.22013
28188.1185
28262.84555
28328.98346
28387.22867
28438.32733
28483.02875
28522.05397
28556.07653
28585.71213
28611.51472
28633.97675
28653.53219
28670.56088
28685.39369
28698.31784
28709.58199
28719.4011
28727.96075
28735.42106
28741.92008
28747.57677
28752.49361
28756.75875
28760.44793
28763.62607
28766.34865
28768.66285
28770.60847
28772.21882
28773.52129
28774.53797
28775.28602
28775.77803
28776.02228
-0.07944026512
-0.009787284856
0.04976974513
0.1820834537
0.2883979403
0.3180028475
0.2914923327
0.3139418511
27276.48934
27402.73731
27526.51158
27646.20061
27760.19235
27867.27054
27966.63102
28057.8541
28140.84813
28215.78012
28283.00558
28343.00526
28396.33245
28443.57194
28485.30994
28522.11323
28554.51591
28583.0118
28608.05105
28630.03953
28649.3402
28666.27561
28681.13096
28694.15752
28705.57603
28715.57994
28724.33849
28731.99948
28738.69182
28744.52773
28749.6047
28754.00726
28757.80845
28761.07114
28763.8491
28766.18801
28768.12622
28769.69544
28770.9213
28771.82379
28772.41761
28772.71241
-0.1099838626
0.02146716044
0.1001572432
0.2271210715
0.2965054778
0.3108453394
0.2917977021
0.2999549265
27276.45803
27394.68537
27510.89152
27623.80105
27732.05793
27834.59027
27930.63243
28019.71616
28101.63923
28176.42099
28244.25358
28305.45469
28360.42578
28409.61731
28453.5014
28492.55139
28527.22736
28557.96647
28585.17707
28609.23565
28630.4858
28649.2386
28665.7739
28680.34216
28693.16661
28704.44555
28714.35453
28723.04862
28730.6644
28737.32187
28743.12616
28748.16907
28752.53047
28756.27948
28759.47555
28762.16939
28764.40375
28766.21409
28767.62916
28768.6714
28769.35736
28769.69793
-0.1120683716
0.06818569371
0.1508052038
0.2521498302
0.2917266564
0.290214687
0.2883994764
0.2851679187
27276.43349
27388.35083
27498.56788
27606.05288
27709.64668
27808.39895
27901.5912
27988.73809
28069.57113
28144.01083
28212.13308
28274.13437
28330.2991
28380.97068
28426.52763
28467.36433
28503.87651
28536.45054
28565.45604
28591.24115
28614.12972
28634.42009
28652.38488
28668.27161
28682.30376
28694.68216
28705.58654
28715.17715
28723.59638
28730.9703
28737.41011
28743.01352
28747.86601
28752.04189
28755.60537
28758.6114
28761.10646
28763.12919
28764.711
28765.87645
28766.64367
28767.02461
-0.07365644193
0.1145755262
0.1837222603
0.2517556972
0.2785084462
0.2758030662
0.2789808068
0.2730024273
27276.41167
27383.43031
27488.97628
27592.195
27692.076
27787.7667
27878.59451
27964.07325
28043.89597
28117.91792
28186.13353
28248.65083
28305.6659
28357.43919
28404.2747
28446.50249
28484.46458
28518.50395
28548.95628
28576.1441
28600.37279
28621.92812
28641.07492
28658.05667
28673.0957
28686.39384
28698.13337
28708.47814
28717.57477
28725.55393
28732.53156
28738.61002
28743.87927
28748.41784
28752.29378
28755.56554
28758.28264
28760.48638
28762.21035
28763.48089
28764.31745
28764.73283
0.003609474644
0.1545506406
0.1992610927
0.2354927096
0.2500141952
0.2634529669
0.2691530851
0.260305916
27276.39455
27379.71017
27481.71205
27581.6742
27678.69491
27771.99665
27860.94628
27945.06394
28024.02125
28097.63119
28165.83232
28228.66969
28286.27481
28338.84592
28386.63003
28429.90699
28468.97611
28504.14518
28535.72186
28564.00705
28589.29015
28611.84564
28631.93099
28649.78545
28665.62955
28679.66518
28692.07603
28703.02834
28712.67171
28721.14021
28728.55328
28735.01686
28740.62435
28745.45755
28749.58753
28753.07548
28755.97334
28758.3245
28760.16431
28761.52049
28762.41356
28762.85702
0.1181202317
0.2015833151
0.2138132558
0.2209317523
0.2276190729
0.2476360339
0.2598670683
0.250871601
27276.37949
27377.03808
27476.48777
27574.09435
27669.03226
27760.57817
27848.12954
27931.2146
28009.49362
28082.75315
28150.89486
28213.92098
28271.918
28325.04006
28373.49302
28417.51994
28457.38836
28493.37956
28525.77972
28554.87297
28580.93602
28604.23423
28625.01892
28643.52558
28659.97288
28674.56232
28687.4783
28698.88852
28708.94463
28717.783
28725.5256
28732.28092
28738.14486
28743.20161
28747.52447
28751.17665
28754.21189
28756.67514
28758.60304
28760.02439
28760.96045
28761.42528
0.2825635999
0.2593240781
0.2287015186
0.2118230184
0.2208185926
0.2466832474