/*--------------------------------*- C++ -*----------------------------------*\
  =========                 |
  \\      /  F ield         | OpenFOAM: The Open Source CFD Toolbox
   \\    /   O peration     | Website:  https://openfoam.org
    \\  /    A nd           | Version:  6
     \\/     M anipulation  |
\*---------------------------------------------------------------------------*/
FoamFile
{
    version     2.0;
    format      ascii;
    class       surfaceScalarField;
    location    "0.11";
    object      phi;
}
// * * * * * * * * * * * * * * * * * * * * * * * * * * * * * * * * * * * * * //

dimensions      [0 3 -1 0 0 0 0];

internalField   nonuniform List<scalar> 
4900
(
-4.511027302e-08
-1.029408255e-07
1.42219363e-08
-5.933220933e-08
3.389939346e-08
-1.96774571e-08
3.516057596e-08
-1.261182504e-09
2.890880678e-08
6.251769114e-09
1.632547789e-08
1.258332882e-08
1.136987799e-09
1.518849007e-08
9.431881274e-17
1.136987635e-09
-9.781675604e-21
4.396599489e-24
-9.697628254e-21
-8.404735041e-23
-9.531786205e-21
-1.658447099e-22
-9.290416933e-21
-2.413752517e-22
-8.981875223e-21
-3.085508045e-22
-8.616167616e-21
-3.657197335e-22
-8.204319123e-21
-4.118636109e-22
-7.757720402e-21
-4.466167972e-22
-7.287538723e-21
-4.702026775e-22
-6.804238995e-21
-4.833236066e-22
-6.317234964e-21
-4.870307439e-22
-5.834670962e-21
-4.825934958e-22
-5.363321032e-21
-4.713821485e-22
-4.908584436e-21
-4.547714775e-22
-4.474553641e-21
-4.340682741e-22
-4.064131465e-21
-4.104621813e-22
-3.679176904e-21
-3.849970195e-22
-3.320663037e-21
-3.585587021e-22
-2.98883457e-21
-3.318755962e-22
-2.683356432e-21
-3.055274795e-22
-2.403448073e-21
-2.799598276e-22
-2.148000727e-21
-2.555008525e-22
-1.915676793e-21
-2.323793883e-22
-1.704991795e-21
-2.107423104e-22
-1.514380208e-21
-1.906706624e-22
-1.342246922e-21
-1.72194032e-22
-1.187006253e-21
-1.553029903e-22
-1.047110463e-21
-1.399595915e-22
-9.210696034e-22
-1.261060447e-22
-8.074643373e-22
-1.136717389e-22
-7.049531723e-22
-1.025788292e-22
-6.122753314e-22
-9.274660027e-23
-5.282502768e-22
-8.409481304e-23
-4.51774714e-22
-7.654622419e-23
-3.818177387e-22
-7.002844417e-23
-3.174146401e-22
-6.447527934e-23
-2.576597546e-22
-5.982768333e-23
-2.016986421e-22
-5.603443265e-23
-1.487197309e-22
-5.305265953e-23
-9.794532098e-23
-5.084849266e-23
-4.862107468e-23
-4.939856999e-23
-4.869554568e-23
-9.119581915e-08
-1.482983467e-07
-4.021734952e-08
-1.103106789e-07
-7.01082328e-09
-5.288398333e-08
4.775750592e-09
-1.304775644e-08
6.283112479e-09
4.744407087e-09
3.201785639e-09
1.566465554e-08
-7.707768354e-10
1.916105252e-08
3.645629805e-18
3.662109344e-10
-9.86774782e-21
1.271197701e-24
-9.779397349e-21
-1.724031284e-22
-9.607306274e-21
-3.379469053e-22
-9.357584229e-21
-4.911141428e-22
-9.039039056e-21
-6.271182697e-22
-8.662309658e-21
-7.424767711e-22
-8.239073417e-21
-8.351327733e-22
-7.781309784e-21
-9.044185664e-22
-7.300664897e-21
-9.508908394e-22
-6.807952469e-21
-9.760843643e-22
-6.312804558e-21
-9.822319459e-22
-5.82346648e-21
-9.719897221e-22
-5.346716887e-21
-9.481946368e-22
-4.887887174e-21
-9.136687147e-22
-4.450952761e-21
-8.71074714e-22
-4.038670727e-21
-8.228206115e-22
-3.652742224e-21
-7.710061511e-22
-3.293982825e-21
-7.174028161e-22
-2.962488677e-21
-6.634583979e-22
-2.657790418e-21
-6.103181761e-22
-2.378990238e-21
-5.588560714e-22
-2.124879993e-21
-5.097106279e-22
-1.894040118e-21
-4.633220968e-22
-1.684920292e-21
-4.199681047e-22
-1.495903528e-21
-3.797963626e-22
-1.325355689e-21
-3.428536061e-22
-1.171662563e-21
-3.091104776e-22
-1.033256561e-21
-2.784824117e-22
-9.086349065e-22
-2.508468013e-22
-7.963710223e-22
-2.260568369e-22
-6.951205406e-22
-2.039524644e-22
-6.036231566e-22
-1.843689053e-22
-5.207013248e-22
-1.67143162e-22
-4.45256602e-22
-1.52118889e-22
-3.762642778e-22
-1.391499649e-22
-3.127667873e-22
-1.281030508e-22
-2.538662891e-22
-1.188593781e-22
-1.987166993e-22
-1.113159663e-22
-1.465154472e-22
-1.05386436e-22
-9.64953617e-23
-1.010015183e-22
-4.791801764e-23
-9.810911101e-23
-9.667236002e-23
-1.193206468e-07
-1.672965436e-07
-7.501454773e-08
-1.54616778e-07
-3.234908515e-08
-9.554944593e-08
-1.064269677e-08
-3.475414486e-08
-7.313942934e-09
1.415653134e-09
-4.770120003e-09
1.312083245e-08
-1.010418201e-09
1.540135055e-08
-1.793676969e-17
-6.442073076e-10
-1.003964945e-20
-3.264891744e-24
-9.944900905e-21
-2.671560262e-22
-9.760449566e-21
-5.224075093e-22
-9.493570954e-21
-7.580069679e-22
-9.154387277e-21
-9.663208926e-22
-8.75496232e-21
-1.141925334e-21
-8.308361988e-21
-1.281761318e-21
-7.827789723e-21
-1.385023594e-21
-7.325869578e-21
-1.452848233e-21
-6.814113323e-21
-1.487882279e-21
-6.302576511e-21
-1.493814749e-21
-5.799685499e-21
-1.474930968e-21
-5.312204274e-21
-1.435730241e-21
-4.84530521e-21
-1.380626202e-21
-4.402709155e-21
-1.313733126e-21
-3.986865124e-21
-1.23873082e-21
-3.599146128e-21
-1.158795023e-21
-3.240044134e-21
-1.07657826e-21
-2.909352825e-21
-9.942266001e-22
-2.606331507e-21
-9.134196993e-22
-2.329846998e-21
-8.35423959e-22
-2.078492852e-21
-7.611511852e-22
-1.850686866e-21
-6.912173864e-22
-1.644748785e-21
-6.25998235e-22
-1.458960626e-21
-5.656791712e-22
-1.291612139e-21
-5.102991962e-22
-1.141033886e-21
-4.597881367e-22
-1.005620218e-21
-4.139976405e-22
-8.838441429e-22
-3.727264416e-22
-7.742658269e-22
-3.357405731e-22
-6.755361674e-22
-3.027892489e-22
-5.863966323e-22
-2.736171202e-22
-5.056763219e-22
-2.479735576e-22
-4.322870118e-22
-2.256195406e-22
-3.652167704e-22
-2.063326555e-22
-3.035226001e-22
-1.899106298e-22
-2.463224457e-22
-1.761737532e-22
-1.92786823e-22
-1.649664747e-22
-1.421302692e-22
-1.56158394e-22
-9.360277e-23
-1.496447939e-22
-4.648113284e-23
-1.453467479e-22
-1.432107759e-22
-1.324679934e-07
-1.652132462e-07
-1.039596347e-07
-1.831251368e-07
-5.878886879e-08
-1.407202118e-07
-2.11646842e-08
-7.237832946e-08
-8.895097274e-09
-1.085393385e-08
-5.740614279e-09
9.966349379e-09
-2.327048479e-10
9.893441043e-09
-1.062518129e-17
-8.769121835e-10
-1.030511217e-20
-5.216060587e-24
-1.020010595e-20
-3.721665317e-22
-9.996010882e-21
-7.265116725e-22
-9.701857771e-21
-1.052174045e-21
-9.329976426e-21
-1.338220868e-21
-8.894794271e-21
-1.577130714e-21
-8.411629932e-21
-1.764953424e-21
-7.895627581e-21
-1.901058199e-21
-7.360922052e-21
-1.987590438e-21
-6.820067204e-21
-2.028778155e-21
-6.283715213e-21
-2.030212039e-21
-5.760506828e-21
-1.998188836e-21
-5.257120799e-21
-1.939169842e-21
-4.778430527e-21
-1.859374034e-21
-4.327722723e-21
-1.76450237e-21
-3.906942587e-21
-1.659576163e-21
-3.516940093e-21
-1.548866371e-21
-3.157700872e-21
-1.435889861e-21
-2.828552257e-21
-1.323450992e-21
-2.528340326e-21
-1.213710672e-21
-2.255577305e-21
-1.108269152e-21
-2.008560933e-21
-1.008252721e-21
-1.785468642e-21
-9.143976924e-22
-1.584429917e-21
-8.271276849e-22
-1.403580301e-21
-7.466220767e-22
-1.241100338e-21
-6.728748683e-22
-1.095242384e-21
-6.057440725e-22
-9.643478499e-22
-5.449922816e-22
-8.468570212e-22
-4.903193549e-22
-7.413132267e-22
-4.413882822e-22
-6.463627861e-22
-3.97845286e-22
-5.607518751e-22
-3.593351619e-22
-4.833211931e-22
-3.255127571e-22
-4.129991158e-22
-2.960513751e-22
-3.487938464e-22
-2.706487752e-22
-2.897849461e-22
-2.490313275e-22
-2.351145153e-22
-2.309567827e-22
-1.839782188e-22
-2.162160262e-22
-1.356162746e-22
-2.046341044e-22
-8.930445675e-23
-1.960707439e-22
-4.434502665e-23
-1.904205302e-22
-1.876129541e-22
-1.299815856e-07
-1.45529898e-07
-1.225398003e-07
-1.90566922e-07
-8.528562273e-08
-1.779743894e-07
-3.822419074e-08
-1.194397615e-07
-8.451363002e-09
-4.062676165e-08
-3.555026179e-09
5.070012524e-09
-1.562300929e-10
6.494644932e-09
1.160773951e-17
-1.033142319e-09
-1.067439176e-20
-6.331117682e-24
-1.055438718e-20
-4.921753953e-22
-1.032161864e-20
-9.592893027e-22
-9.987867001e-21
-1.385939629e-21
-9.568866519e-21
-1.757239959e-21
-9.082613814e-21
-2.063406616e-21
-8.547745412e-21
-2.299849562e-21
-7.982180935e-21
-2.466654895e-21
-7.402137698e-21
-2.567670313e-21
-6.82153255e-21
-2.609424287e-21
-6.251724298e-21
-2.600065542e-21
-5.701518913e-21
-2.548443651e-21
-5.177353483e-21
-2.463388788e-21
-4.683583961e-21
-2.353201054e-21
-4.222817865e-21
-2.22532984e-21
-3.796250376e-21
-2.086208789e-21
-3.403977603e-21
-1.941207926e-21
-3.045272807e-21
-1.794666958e-21
-2.718819938e-21
-1.649979555e-21
-2.422904439e-21
-1.509705127e-21
-2.155564556e-21
-1.375691119e-21
-1.914708023e-21
-1.249194326e-21
-1.698199533e-21
-1.130994102e-21
-1.50392428e-21
-1.021493564e-21
-1.329832384e-21
-9.208071604e-22
-1.173968357e-21
-8.288345003e-22
-1.034489094e-21
-7.453212096e-22
-9.096732391e-22
-6.699081329e-22
-7.979241805e-22
-6.021703856e-22
-6.977684552e-22
-5.416478071e-22
-6.078509368e-22
-4.878682838e-22
-5.269278374e-22
-4.403652727e-22
-4.538583005e-22
-3.986906904e-22
-3.875951482e-22
-3.624241619e-22
-3.271751878e-22
-3.311794615e-22
-2.71709356e-22
-3.046088306e-22
-2.203728843e-22
-2.824057256e-22
-1.723955959e-22
-2.643064403e-22
-1.270523871e-22
-2.500909485e-22
-8.365389064e-23
-2.3958324e-22
-4.153727491e-23
-2.326513647e-22
-2.292073802e-22
-1.115078638e-07
-1.128065692e-07
-1.266995008e-07
-1.753752851e-07
-1.066092515e-07
-1.980646387e-07
-6.130891126e-08
-1.647401017e-07
-1.575523234e-08
-8.61804406e-08
-1.482968502e-10
-1.053692298e-08
-3.862379141e-10
6.732586009e-09
2.499763634e-17
-1.419380266e-09
-1.116272629e-20
-7.851302335e-24
-1.102141157e-20
-6.334943943e-22
-1.074819459e-20
-1.232515377e-21
-1.035911843e-20
-1.775029741e-21
-9.875010218e-21
-2.241366785e-21
-9.319057166e-21
-2.619382872e-21
-8.71456995e-21
-2.904364523e-21
-8.083228959e-21
-3.098028113e-21
-7.44393238e-21
-3.207003539e-21
-6.812218022e-21
-3.24117964e-21
-6.200146533e-21
-3.212182294e-21
-5.616505531e-21
-3.132134097e-21
-5.067202983e-21
-3.012744864e-21
-4.555744905e-21
-2.864716644e-21
-4.083723659e-21
-2.697412476e-21
-3.651271208e-21
-2.518726393e-21
-3.257453602e-21
-2.335094328e-21
-2.900598201e-21
-2.151594678e-21
-2.578554748e-21
-1.97209872e-21
-2.288896716e-21
-1.799442132e-21
-2.029071662e-21
-1.635598273e-21
-1.796509817e-21
-1.481841259e-21
-1.588699569e-21
-1.338892289e-21
-1.403237377e-21
-1.207046399e-21
-1.237858454e-21
-1.086279288e-21
-1.090453272e-21
-9.763353043e-22
-9.590738937e-22
-8.767984788e-22
-8.419331922e-22
-7.871488485e-22
-7.373992425e-22
-7.068063244e-22
-6.439866002e-22
-6.35164266e-22
-5.603456861e-22
-5.71614694e-22
-4.85251154e-22
-5.15566833e-22
-4.175898414e-22
-4.664604156e-22
-3.563487095e-22
-4.237749441e-22
-3.006030246e-22
-3.870358878e-22
-2.495049329e-22
-3.558186086e-22
-2.022724991e-22
-3.29750645e-22
-1.581792243e-22
-3.085128544e-22
-1.16544019e-22
-2.918398018e-22
-7.672157575e-23
-2.795196948e-22
-3.809307094e-23
-2.713940996e-22
-2.673576153e-22
-8.018315896e-08
-7.365727375e-08
-1.147836792e-07
-1.407747649e-07
-1.167366941e-07
-1.961116238e-07
-8.335963082e-08
-1.98117165e-07
-3.343768404e-08
-1.361023874e-07
-1.899867692e-09
-4.207473933e-08
-5.296533016e-10
5.362371632e-09
1.899386681e-17
-1.949033585e-09
-1.179208625e-20
-1.115278263e-23
-1.162031763e-20
-8.052672919e-22
-1.129061069e-20
-1.562231418e-21
-1.082539477e-20
-2.240259625e-21
-1.025300272e-20
-2.813777458e-21
-9.604047356e-21
-3.268361448e-21
-8.908266636e-21
-3.600172999e-21
-8.192253776e-21
-3.814073215e-21
-7.478166561e-21
-3.921127416e-21
-6.783281249e-21
-3.936105964e-21
-6.120156854e-21
-3.87535197e-21
-5.497169786e-21
-3.755170627e-21
-4.919221562e-21
-3.590746637e-21
-4.388480197e-21
-3.395515544e-21
-3.90506975e-21
-3.180884335e-21
-3.467664532e-21
-2.956196787e-21
-3.073973308e-21
-2.728854375e-21
-2.721116422e-21
-2.504523907e-21
-2.405908029e-21
-2.28738285e-21
-2.12505923e-21
-2.080369931e-21
-1.875318257e-21
-1.885421374e-21
-1.653562324e-21
-1.703682308e-21
-1.456853559e-21
-1.535689019e-21
-1.282468991e-21
-1.38152164e-21
-1.127912392e-21
-1.240929121e-21
-9.909138482e-22
-1.113429499e-21
-8.694213646e-22
-9.983888836e-22
-7.615876364e-22
-8.950826207e-22
-6.657541455e-22
-8.027418348e-22
-5.804340754e-22
-7.205881828e-22
-5.042950248e-22
-6.47859271e-22
-4.361421349e-22
-5.838267811e-22
-3.74901998e-22
-5.278089953e-22
-3.196075307e-22
-4.791790916e-22
-2.693838835e-22
-4.373703059e-22
-2.23435374e-22
-4.018788337e-22
-1.810333817e-22
-3.722651515e-22
-1.41505113e-22
-3.481542908e-22
-1.0422312e-22
-3.292354705e-22
-6.859545366e-23
-3.152614e-22
-3.405632357e-23
-3.060474866e-22
-3.014711178e-22
-4.300852176e-08
-3.633667323e-08
-8.898051834e-08
-9.480276832e-08
-1.131477805e-07
-1.719443617e-07
-9.878640132e-08
-2.124785442e-07
-5.364791325e-08
-1.812408755e-07
-9.518186921e-09
-8.620446566e-08
-6.594527895e-10
-3.496362508e-09
7.067642912e-18
-2.608486394e-09
-1.259241082e-20
-1.687631899e-23
-1.237712322e-20
-1.020559179e-21
-1.196851114e-20
-1.970852602e-21
-1.139884049e-20
-2.809944243e-21
-1.070756747e-20
-3.505069108e-21
-9.93588314e-21
-4.040069002e-21
-9.122222098e-21
-4.413861809e-21
-8.299381752e-21
-4.636945816e-21
-7.49322676e-21
-4.727319085e-21
-6.722608731e-21
-4.706765022e-21
-6.000051399e-21
-4.597954601e-21
-5.332812949e-21
-4.42245856e-21
-4.724047489e-21
-4.199565668e-21
-4.173895698e-21
-3.945724891e-21
-3.680419206e-21
-3.674422262e-21
-3.240350454e-21
-3.396330739e-21
-2.849663728e-21
-3.119609947e-21
-2.503990061e-21
-2.850269944e-21
-2.198904793e-21
-2.592543883e-21
-1.930116402e-21
-2.34923735e-21
-1.693581876e-21
-2.122038056e-21
-1.48556944e-21
-1.91177989e-21
-1.302684927e-21
-1.718661527e-21
-1.141874065e-21
-1.542423204e-21
-1.000409604e-21
-1.382486848e-21
-8.758696112e-22
-1.238065174e-21
-7.661112592e-22
-1.108245188e-21
-6.692429605e-22
-9.920509954e-22
-5.83596683e-22
-8.884901636e-22
-5.077015233e-22
-7.965872214e-22
-4.402591274e-22
-7.154072256e-22
-3.80121216e-22
-6.440717829e-22
-3.262692612e-22
-5.81769425e-22
-2.777962267e-22
-5.277618383e-22
-2.338902143e-22
-4.81387121e-22
-1.938198174e-22
-4.420609775e-22
-1.569209675e-22
-4.092765469e-22
-1.225850565e-22
-3.826034001e-22
-9.024812678e-23
-3.616861061e-22
-5.938092735e-23
-3.46242668e-22
-2.947964904e-23
-3.360630513e-22
-3.310079613e-22
-8.798212132e-09
-1.072032144e-08
-5.511376371e-08
-4.848721672e-08
-9.67094262e-08
-1.303486992e-07
-1.042961824e-07
-2.04891788e-07
-7.115190202e-08
-2.143851559e-07
-2.13873695e-08
-1.359689982e-07
-1.066747234e-11
-2.487306455e-08
4.540096597e-18
-2.619153897e-09
-1.360546302e-20
-2.109773823e-23
-1.332717354e-20
-1.298852946e-21
-1.280743902e-20
-2.490596225e-21
-1.209388454e-20
-3.523512697e-21
-1.124256186e-20
-4.356410429e-21
-1.030972832e-20
-4.972925781e-21
-9.345395972e-21
-5.378221934e-21
-8.389863832e-21
-5.592510225e-21
-7.472785969e-21
-5.644433641e-21
-6.613906104e-21
-5.565685932e-21
-5.824651761e-21
-5.387254261e-21
-5.110002277e-21
-5.137157545e-21
-4.470274129e-21
-4.839347407e-21
-3.902646428e-21
-4.513410172e-21
-3.40236848e-21
-4.174761668e-21
-2.963659714e-21
-3.83510473e-21
-2.580344895e-21
-3.502993638e-21
-2.246278033e-21
-3.184409202e-21
-1.955606703e-21
-2.883291006e-21
-1.702921282e-21
-2.602001827e-21
-1.483324708e-21
-2.341716815e-21
-1.292449782e-21
-2.102739992e-21
-1.126443718e-21
-1.884755618e-21
-9.819337757e-22
-1.68702388e-21
-8.559833675e-22
-1.508530553e-21
-7.460447485e-22
-1.348099507e-21
-6.499121063e-22
-1.204475816e-21
-5.656772532e-22
-1.076385957e-21
-4.916890677e-22
-9.62580433e-22
-4.26517137e-22
-8.618630637e-22
-3.689196285e-22
-7.731103254e-22
-3.178151676e-22
-6.952833671e-22
-2.722583659e-22
-6.274347343e-22
-2.314185887e-22
-5.687113602e-22
-1.945615371e-22
-5.183550079e-22
-1.610332352e-22
-4.757010586e-22
-1.30246044e-22
-4.401763155e-22
-1.016663528e-22
-4.112963213e-22
-7.480363873e-23
-3.886625574e-22
-4.920061431e-23
-3.71959792e-22
-2.442421202e-23
-3.609537707e-22
-3.554893836e-22
1.188598102e-08
-9.323433187e-10
-2.192733243e-08
-1.467390326e-08
-7.147385244e-08
-8.080217922e-08
-9.971333147e-08
-1.766523089e-07
-8.399705321e-08
-2.301014342e-07
-3.574628103e-08
-1.842197704e-07
2.849090704e-10
-6.090425467e-08
5.488773498e-19
-2.334244846e-09
-1.489461381e-20
-6.303206281e-23
-1.451856896e-20
-1.674902085e-21
-1.384014961e-20
-3.169024683e-21
-1.292670038e-20
-4.436975898e-21
-1.185910285e-20
-5.424026614e-21
-1.071512532e-20
-6.116926554e-21
-9.559827297e-21
-6.533547752e-21
-8.441945576e-21
-6.710424229e-21
-7.394193095e-21
-6.69222283e-21
-6.435614462e-21
-6.524305628e-21
-5.574674764e-21
-6.248239295e-21
-4.81229005e-21
-5.899591781e-21
-4.144413965e-21
-5.507277103e-21
-3.564056438e-21
-5.093825299e-21
-3.062754318e-21
-4.676125271e-21
-2.631578533e-21
-4.266345764e-21
-2.261780164e-21
-3.872860904e-21
-1.945171659e-21
-3.50109013e-21
-1.674323407e-21
-3.154215077e-21
-1.442637796e-21
-2.833766522e-21
-1.244346312e-21
-2.540090513e-21
-1.074461714e-21
-2.272709796e-21
-9.28706913e-22
-2.030598475e-21
-8.034345717e-22
-1.812386986e-21
-6.955460504e-22
-1.616512402e-21
-6.024146921e-22
-1.441326611e-21
-5.218160024e-22
-1.285172522e-21
-4.518657506e-22
-1.146436349e-21
-3.909660825e-22
-1.023582218e-21
-3.377592059e-22
-9.151738848e-22
-2.910879342e-22
-8.198872215e-22
-2.499622706e-22
-7.36516187e-22
-2.135312016e-22
-6.63974344e-22
-1.810589141e-22
-6.012934255e-22
-1.519047224e-22
-5.476200677e-22
-1.255060703e-22
-5.022115227e-22
-1.013640576e-22
-4.644309381e-22
-7.903101303e-23
-4.337426281e-22
-5.809970233e-23
-4.097076374e-22
-3.819381761e-23
-3.919798081e-22
-1.895943879e-23
-3.803024981e-22
-3.745060486e-22
1.909684766e-08
7.44049618e-10
2.832068896e-09
1.590875495e-09
-4.273855392e-08
-3.523155641e-08
-8.690893422e-08
-1.324819287e-07
-9.183841608e-08
-2.251719523e-07
-5.171663417e-08
-2.243415523e-07
-3.34345443e-09
-1.092774344e-07
-1.83636743e-17
-5.677699249e-09
-1.652175209e-20
-1.942155533e-22
-1.60121669e-20
-2.184491566e-21
-1.510782718e-20
-4.073373509e-21
-1.391368459e-20
-5.631132471e-21
-1.25520918e-20
-6.785638066e-21
-1.113192886e-20
-7.537112743e-21
-9.736926851e-21
-7.928577569e-21
-8.423970808e-21
-8.023412567e-21
-7.226483613e-21
-7.889746748e-21
-6.159725905e-21
-7.591104415e-21
-5.22617179e-21
-7.181838762e-21
-4.420088013e-21
-6.705725098e-21
-3.731046608e-21
-6.19637214e-21
-3.146417263e-21
-5.678512267e-21
-2.653016693e-21
-5.169587345e-21
-2.238120782e-21
-4.681306949e-21
-1.89002531e-21
-4.221025298e-21
-1.59830427e-21
-3.792883619e-21
-1.353876591e-21
-3.398718603e-21
-1.148959409e-21
-3.038762815e-21
-9.769604735e-22
-2.712171691e-21
-8.323435503e-22
-2.417411954e-21
-7.104876139e-22
-2.152542498e-21
-6.075517519e-22
-1.915413642e-21
-5.203519776e-22
-1.703805535e-21
-4.462525371e-22
-1.515521829e-21
-3.830721528e-22
-1.348450955e-21
-3.290044398e-22
-1.200604235e-21
-2.825511308e-22
-1.070137676e-21
-2.42466514e-22
-9.55362479e-22
-2.077114689e-22
-8.547479237e-22
-1.774155874e-22
-7.669192578e-22
-1.508460172e-22
-6.90652488e-22
-1.273818435e-22
-6.248674099e-22
-1.064929939e-22
-5.686198182e-22
-8.772280783e-23
-5.210935535e-22
-7.067355335e-23
-4.81592835e-22
-5.499429186e-23
-4.495351842e-22
-4.037059009e-23
-4.244451405e-22
-2.651565955e-23
-4.059489019e-22
-1.316256735e-23
-3.937699707e-22
-3.877258581e-22
2.090006018e-08
1.001340536e-09
1.642173167e-08
6.069203968e-09
-1.531609587e-08
-3.493728861e-09
-6.808580374e-08
-7.971222079e-08
-9.482364099e-08
-1.98434115e-07
-6.900497225e-08
-2.501602211e-07
-1.341842514e-08
-1.648639815e-07
-2.40557357e-17
-1.90961243e-08
-1.854574284e-20
-6.439138085e-24
-1.790004814e-20
-2.830190558e-21
-1.666522426e-20
-5.308206501e-21
-1.506819052e-20
-7.228180196e-21
-1.330378093e-20
-8.550066323e-21
-1.152371009e-20
-9.317206844e-21
-9.832102156e-21
-9.620213319e-21
-8.290622405e-21
-9.564924627e-21
-6.928112938e-21
-9.252292952e-21
-5.750679082e-21
-8.768579364e-21
-4.750226161e-21
-8.182337054e-21
-3.910858726e-21
-7.545142091e-21
-3.213273964e-21
-6.894010554e-21
-2.637550911e-21
-6.254292963e-21
-2.16477309e-21
-5.642426692e-21
-1.777859856e-21
-5.068285479e-21
-1.461892831e-21
-4.537061269e-21
-1.204140432e-21
-4.050708492e-21
-9.939165914e-22
-3.609018316e-21
-8.223606277e-22
-3.210397918e-21
-6.821910392e-22
-2.85242355e-21
-5.674633518e-22
-2.532224905e-21
-4.733476648e-22
-2.2467463e-21
-3.959326679e-22
-1.992919464e-21
-3.320577173e-22
-1.767773876e-21
-2.79171723e-22
-1.568503632e-21
-2.352162154e-22
-1.392504543e-21
-1.985294385e-22
-1.237391217e-21
-1.677682823e-22
-1.101001013e-21
-1.418450866e-22
-9.813896842e-22
-1.198766844e-22
-8.768220156e-22
-1.011434178e-22
-7.857597462e-22
-8.505621905e-23
-7.068482931e-22
-7.113017184e-23
-6.389033005e-22
-5.896325098e-23
-5.808976726e-22
-4.821917753e-23
-5.319495041e-22
-3.861352566e-23
-4.913111617e-22
-2.990237958e-23
-4.58359657e-22
-2.187296919e-23
-4.325883843e-22
-1.433581609e-23
-4.1360025e-22
-7.118001408e-24
-4.011021973e-22
-3.949011173e-22
2.350217587e-08
1.67588458e-09
2.274996914e-08
6.821410661e-09
7.127559559e-09
1.212868073e-08
-4.403596616e-08
-2.854869505e-08
-9.161595659e-08
-1.508541246e-07
-8.655287268e-08
-2.552233049e-07
-3.039552979e-08
-2.210213243e-07
1.833656924e-17
-4.949165399e-08
-2.146073334e-20
-3.350287375e-22
-2.037756231e-20
-3.913365879e-21
-1.858499803e-20
-7.100779901e-21
-1.639029234e-20
-9.422899879e-21
-1.407137353e-20
-1.086900379e-20
-1.182724508e-20
-1.156135856e-20
-9.77731783e-21
-1.16701684e-20
-7.978421841e-21
-1.136385294e-20
-6.444742045e-21
-1.07860095e-20
-5.164694649e-21
-1.004866787e-20
-4.113216308e-21
-9.233860781e-21
-3.259853982e-21
-8.398553994e-21
-2.573638602e-21
-7.580279604e-21
-2.025734046e-21
-6.802255182e-21
-1.590657869e-21
-6.077564417e-21
-1.246645444e-21
-5.412363223e-21
-9.755390309e-22
-4.808236653e-21
-7.62442309e-22
-4.263877712e-21
-5.952840879e-22
-3.776252435e-21
-4.643719186e-22
-3.341389253e-21
-3.619771245e-22
-2.954900641e-21
-2.819694124e-22
-2.612317908e-21
-2.195059818e-22
-2.309297875e-21
-1.707730546e-22
-2.041743245e-21
-1.327744565e-22
-1.805865893e-21
-1.031607107e-22
-1.598213216e-21
-8.009207861e-23
-1.415671286e-21
-6.212951588e-23
-1.255454015e-21
-4.814827893e-23
-1.115084463e-21
-3.72697283e-23
-9.923722758e-22
-2.880764351e-23
-8.853898217e-22
-2.222604405e-23
-7.924485993e-22
-1.710609201e-23
-7.120768832e-22
-1.312013527e-23
-6.429991325e-22
-1.001134506e-23
-5.841174282e-22
-7.577720709e-24
-5.344950374e-22
-5.659488396e-24
-4.933421004e-22
-4.12912181e-24
-4.600033818e-22
-2.883369853e-24
-4.33948001e-22
-1.836797982e-24
-4.147610481e-22
-9.164421015e-25
-4.02136996e-22
-3.958748322e-22
2.775754207e-08
2.465947633e-09
2.70747554e-08
7.50419732e-09
2.291002586e-08
1.629341029e-08
-1.486468664e-08
9.226017476e-09
-7.835623957e-08
-8.736257165e-08
-1.004001577e-07
-2.331793868e-07
-5.241859376e-08
-2.690028882e-07
5.563990024e-17
-1.019102477e-07
-2.525173716e-20
-7.117186957e-22
-2.356399255e-20
-5.601114775e-21
-2.090706218e-20
-9.757719389e-21
-1.783700518e-20
-1.249297088e-20
-1.476457777e-20
-1.394144987e-20
-1.193689617e-20
-1.438906344e-20
-9.471719984e-21
-1.413537242e-20
-7.401138447e-21
-1.34344668e-20
-5.707810603e-21
-1.247937411e-20
-4.350172466e-21
-1.140634713e-20
-3.278097271e-21
-1.030598138e-20
-2.441695762e-21
-9.235005096e-21
-1.795679667e-21
-8.226349386e-21
-1.301074116e-21
-7.296918415e-21
-9.254646444e-22
-6.453235456e-21
-6.425123718e-22
-5.695380836e-21
-4.311649453e-22
-5.019653072e-21
-2.747971936e-22
-4.420317985e-21
-1.603989827e-22
-3.890726568e-21
-7.786097482e-23
-3.424006451e-21
-1.93726844e-23
-3.013471255e-21
2.107110057e-23
-2.652847011e-21
4.806758286e-23
-2.336382528e-21
6.512155616e-23
-2.0588881e-21
7.489378615e-23
-1.81573157e-21
7.939514642e-23
-1.602810444e-21
8.013757437e-23
-1.416511854e-21
7.825098638e-23
-1.253667693e-21
7.457354432e-23
-1.111509263e-21
6.972116673e-23
-9.876239694e-22
6.414093618e-23
-8.799153429e-22
5.815204861e-23
-7.865669959e-22
5.197714736e-23
-7.060106507e-22
4.576625187e-23
-6.368981429e-22
3.961499429e-23
-5.780771666e-22
3.357849191e-23
-5.285704746e-22
2.768188417e-23
-4.875582297e-22
2.192833318e-23
-4.543632195e-22
1.630511045e-23
-4.284386733e-22
1.078825895e-23
-4.093584529e-22
5.346220185e-24
-3.968094301e-22
-3.905858993e-22
3.328731722e-08
2.875154078e-09
3.220470607e-08
8.586808484e-09
3.266496892e-08
1.583314748e-08
1.558453264e-08
2.630645378e-08
-5.020015225e-08
-2.15778867e-08
-1.031273346e-07
-1.802522044e-07
-7.498319119e-08
-2.971470316e-07
2.964615315e-17
-1.76893439e-07
-3.056865874e-20
-1.429295308e-21
-2.771987306e-20
-8.449904746e-21
-2.364298145e-20
-1.383462013e-20
-1.928690966e-20
-1.684905666e-20
-1.521368717e-20
-1.801469104e-20
-1.168447483e-20
-1.791829906e-20
-8.771779363e-21
-1.704809573e-20
-6.446727129e-21
-1.575955138e-20
-4.635236799e-21
-1.429090121e-20
-3.250090554e-21
-1.279153451e-20
-2.20728581e-21
-1.134883154e-20
-1.433124703e-21
-1.000921581e-20
-8.662814102e-22
-8.793246384e-21
-4.57391631e-22
-7.705865894e-21
-1.675915683e-22
-6.743097106e-21
3.324402528e-23
-5.896281789e-21
1.682033592e-22
-5.15468142e-21
2.548285652e-22
-4.507015735e-21
3.063545516e-22
-3.9423285e-21
3.327055802e-22
-3.450436694e-21
3.412803073e-22
-3.02212833e-21
3.375615253e-22
-2.649213571e-21
3.255851665e-22
-2.324494366e-21
3.082985942e-22
-2.041692435e-21
2.878329736e-22
-1.795359424e-21
2.657095733e-22
-1.580782938e-21
2.429955771e-22
-1.393896026e-21
2.20421477e-22
-1.231193886e-21
1.984693186e-22
-1.089659375e-21
1.774388737e-22
-9.666976243e-22
1.574971233e-22
-8.600793731e-22
1.387151335e-22
-7.678923192e-22
1.210954158e-22
-6.884996309e-22
1.045921136e-22
-6.205047758e-22
8.912578483e-23
-5.627218631e-22
7.459412238e-23
-5.141507809e-22
6.087962774e-23
-4.739565011e-22
4.785500973e-23
-4.414520192e-22
3.538689621e-23
-4.160844837e-22
2.333831013e-23
-3.974241519e-22
1.157026071e-23
-3.851558821e-22
-3.790729393e-22
3.940497792e-08
2.945275543e-09
3.887738821e-08
9.114398225e-09
3.976542523e-08
1.494511048e-08
3.967734651e-08
2.639453254e-08
-6.210747084e-09
2.431020696e-08
-8.644027302e-08
-1.000226784e-07
-9.147333137e-08
-2.921139733e-07
-1.612073105e-17
-2.683667707e-07
-3.83431607e-20
-3.30322712e-21
-3.310539077e-20
-1.368767897e-20
-2.666001488e-20
-2.028000514e-20
-2.045547272e-20
-2.305361284e-20
-1.511973466e-20
-2.335044779e-20
-1.081604878e-20
-2.222200823e-20
-7.484426627e-21
-2.037974573e-20
-4.978824428e-21
-1.826518593e-20
-3.136307451e-21
-1.613345497e-20
-1.807620045e-21
-1.412026306e-20
-8.677731263e-22
-1.228872389e-20
-2.171801645e-22
-1.065985839e-20
2.211188463e-22
-9.231599116e-21
5.05420367e-22
-7.990225132e-21
6.792773855e-22
-6.917015729e-21
7.749007582e-22
-5.991970541e-21
8.159237988e-22
-5.195773493e-21
8.195666971e-22
-4.510731197e-21
7.98292404e-22
-3.921130173e-21
7.610548839e-22
-3.41327841e-21
7.142310484e-22
-2.975386864e-21
6.623121164e-22
-2.597380005e-21
6.084143344e-22
-2.270684805e-21
5.546551642e-22
-1.988024197e-21
5.024297913e-22
-1.74322755e-21
4.526140068e-22
-1.531063073e-21
4.057128005e-22
-1.347093013e-21
3.619689601e-22
-1.187550365e-21
3.214422144e-22
-1.049234927e-21
2.840666851e-22
-9.294262215e-22
2.496923602e-22
-8.258108557e-22
2.181148035e-22
-7.364221027e-22
1.890961995e-22
-6.59589752e-22
1.623800261e-22
-5.938985647e-22
1.377010415e-22
-5.38153931e-22
1.147918367e-22
-4.913535721e-22
9.338687352e-23
-4.526643312e-22
7.322469362e-23
-4.214032841e-22
5.404880344e-23
-3.970225444e-22
3.56076135e-23
-3.790972739e-22
1.765371534e-23
-3.67316512e-22
-3.614765369e-22
4.556671751e-08
2.923098885e-09
4.575506652e-08
8.926049249e-09
4.567080852e-08
1.502936847e-08
5.029071411e-08
2.177462698e-08
3.631962508e-08
3.828129605e-08
-4.691129802e-08
-1.679175529e-08
-9.496451855e-08
-2.440607527e-07
-4.344940206e-17
-3.633312895e-07
-4.991718969e-20
-9.550759621e-21
-3.970407899e-20
-2.390079397e-20
-2.944031913e-20
-3.054377412e-20
-2.075756226e-20
-3.173638372e-20
-1.399485321e-20
-3.011317553e-20
-8.975995523e-21
-2.724088922e-20
-5.37114391e-21
-2.39846252e-20
-2.847773104e-21
-2.078858909e-20
-1.123431851e-21
-1.785783302e-20
2.381354357e-23
-1.526754962e-20
7.611023902e-22
-1.302605817e-20
1.211147521e-21
-1.110995316e-20
1.462586309e-21
-9.483091638e-21
1.578729692e-21
-8.106426247e-21
1.604419104e-21
-6.942766761e-21
1.57118624e-21
-5.958803072e-21
1.501044641e-21
-5.125700946e-21
1.409236167e-21
-4.418995305e-21
1.306203102e-21
-3.818173093e-21
1.1989968e-21
-3.306151364e-21
1.092280767e-21
-2.868753223e-21
9.890436983e-22
-2.494228324e-21
8.911057913e-22
-2.17283514e-21
7.994779677e-22
-1.896487328e-21
7.146164545e-22
-1.658459559e-21
6.366028999e-22
-1.453145461e-21
5.652714479e-22
-1.275859778e-21
5.002979989e-22
-1.122677259e-21
4.412624856e-22
-9.90301735e-22
3.876918833e-22
-8.7595977e-22
3.390894632e-22
-7.773142677e-22
2.949542294e-22
-6.923942338e-22
2.547933592e-22
-6.195376317e-22
2.181296705e-22
-5.573448632e-22
1.845055657e-22
-5.046409037e-22
1.534844917e-22
-4.60444519e-22
1.246506597e-22
-4.239433174e-22
9.760755717e-23
-3.944736512e-22
7.197562854e-23
-3.715045914e-22
4.738939386e-23
-3.546253757e-22
2.349419436e-23
-3.43535865e-22
-3.380396666e-22
5.160268405e-08
2.830219671e-09
5.22016378e-08
8.327095528e-09
5.270863239e-08
1.452237389e-08
5.591395535e-08
1.856930402e-08
6.33011699e-08
3.08940815e-08
9.665817906e-09
3.684359662e-08
-8.111453684e-08
-1.532803978e-07
-2.384567153e-17
-4.444458264e-07
-6.597631656e-20
-2.957765034e-20
-4.636701466e-20
-4.351010018e-20
-3.064610412e-20
-4.626469378e-20
-1.914219516e-20
-4.32403067e-20
-1.112689869e-20
-3.81284907e-20
-5.721956806e-21
-3.26458544e-20
-2.176135739e-21
-2.753047413e-20
8.260539909e-23
-2.304736259e-20
1.466809013e-21
-1.924207344e-20
2.265421469e-21
-1.606620324e-20
2.677387803e-21
-1.343806996e-20
2.838204099e-21
-1.12708191e-20
2.839437547e-21
-9.484378834e-21
2.742555669e-21
-8.009602113e-21
2.58852693e-21
-6.788799657e-21
2.404410671e-21
-5.774752223e-21
2.207852834e-21
-4.929212175e-21
2.010143786e-21
-4.221358856e-21
1.81829571e-21
-3.626401019e-21
1.636453688e-21
-3.124388615e-21
1.466854371e-21
-2.699236314e-21
1.310477311e-21
-2.33793667e-21
1.167487228e-21
-2.029933317e-21
1.037533767e-21
-1.766624842e-21