/*--------------------------------*- C++ -*----------------------------------*\
  =========                 |
  \\      /  F ield         | OpenFOAM: The Open Source CFD Toolbox
   \\    /   O peration     | Website:  https://openfoam.org
    \\  /    A nd           | Version:  6
     \\/     M anipulation  |
\*---------------------------------------------------------------------------*/
FoamFile
{
    version     2.0;
    format      ascii;
    class       volScalarField;
    location    "0.11";
    object      pVap;
}
// * * * * * * * * * * * * * * * * * * * * * * * * * * * * * * * * * * * * * //

dimensions      [1 -1 -2 0 0 0 0];

internalField   nonuniform List<scalar> 
2500
(
55293.97602
55293.74429
55293.43542
55293.18199
55292.99306
55292.84235
55292.71384
55292.63205
1.075398776
1.074895917
1.074602606
1.074435778
1.074344662
1.07429712
1.074273402
1.074262032
1.074256755
1.074254364
1.074253301
1.074252834
1.074252633
1.074252547
1.074252512
1.074252498
1.074252492
1.07425249
1.074252489
1.074252489
1.074252489
1.074252489
1.074252489
1.074252489
1.074252489
1.074252489
1.074252489
1.074252489
1.074252489
1.074252489
1.074252489
1.074252489
1.074252489
1.074252489
1.074252489
1.074252489
1.074252489
1.074252489
1.074252489
1.074252489
1.074252489
1.074252489
55295.33665
55295.08017
55294.63865
55294.12559
55293.65721
55293.26523
55292.92362
55292.62251
1.077671531
1.076204559
1.075327024
1.074821598
1.074542689
1.074395426
1.074320841
1.074284401
1.074267101
1.074259065
1.074255396
1.074253748
1.074253021
1.074252708
1.074252576
1.074252522
1.074252501
1.074252493
1.07425249
1.074252489
1.074252489
1.074252489
1.074252489
1.074252489
1.074252489
1.074252489
1.074252489
1.074252489
1.074252489
1.074252489
1.074252489
1.074252489
1.074252489
1.074252489
1.074252489
1.074252489
1.074252489
1.074252489
1.074252489
1.074252489
1.074252489
1.074252489
55296.03201
55295.82263
55295.41608
55294.84798
55294.21679
55293.64287
55293.12245
55292.62199
1.080071897
1.077632139
1.076147667
1.075279343
1.074791099
1.07452692
1.074388868
1.074318817
1.074284109
1.074267255
1.074259227
1.074255483
1.074253779
1.074253027
1.074252705
1.074252573
1.07425252
1.0742525
1.074252493
1.07425249
1.074252489
1.074252489
1.074252489
1.074252489
1.074252489
1.074252489
1.074252489
1.074252489
1.074252489
1.074252489
1.074252489
1.074252489
1.074252489
1.074252489
1.074252489
1.074252489
1.074252489
1.074252489
1.074252489
1.074252489
1.074252489
1.074252489
55296.45618
55296.29282
55295.95454
55295.42752
55294.73341
55294.01592
55293.32878
55292.63031
1.082835576
1.079354777
1.07719866
1.075907826
1.07515897
1.074737154
1.074505793
1.074381877
1.074316976
1.07428376
1.074267194
1.074259173
1.074255419
1.074253725
1.07425299
1.074252684
1.074252562
1.074252515
1.074252498
1.074252492
1.07425249
1.074252489
1.074252489
1.074252489
1.074252489
1.074252489
1.074252489
1.074252489
1.074252489
1.074252489
1.074252489
1.074252489
1.074252489
1.074252489
1.074252489
1.074252489
1.074252489
1.074252489
1.074252489
1.074252489
1.074252489
1.074252489
55296.7631
55296.64053
55296.36904
55295.91139
55295.2309
55294.39697
55293.54459
55292.64882
1.086344662
1.081703885
1.078747048
1.076908072
1.07578803
1.075119884
1.074729929
1.07450776
1.074384619
1.074318489
1.074284221
1.074267145
1.074258984
1.07425525
1.074253614
1.074252929
1.074252654
1.074252548
1.074252509
1.074252496
1.074252491
1.074252489
1.074252489
1.074252489
1.074252489
1.074252489
1.074252489
1.074252489
1.074252489
1.074252489
1.074252489
1.074252489
1.074252489
1.074252489
1.074252489
1.074252489
1.074252489
1.074252489
1.074252489
1.074252489
1.074252489
1.074252489
55297.01279
55296.9285
55296.71938
55296.33235
55295.70182
55294.8009
55293.77543
55292.67074
1.091368263
1.085353065
1.081340263
1.078693791
1.076970105
1.075867886
1.075180889
1.074766365
1.074525609
1.074391586
1.074320286
1.074284096
1.074266582
1.074258502
1.074254945
1.07425345
1.07425285
1.074252619
1.074252534
1.074252504
1.074252494
1.07425249
1.074252489
1.074252489
1.074252489
1.074252489
1.074252489
1.074252489
1.074252489
1.074252489
1.074252489
1.074252489
1.074252489
1.074252489
1.074252489
1.074252489
1.074252489
1.074252489
1.074252489
1.074252489
1.074252489
1.074252489
55297.22939
55297.18239
55297.03502
55296.71844
55296.14648
55295.23196
55294.03045
55292.69487
1.099485596
1.091678838
1.08609245
1.082103303
1.079293587
1.077367762
1.07609725
1.075296385
1.074816099
1.07454264
1.074394916
1.074319182
1.074282303
1.074265225
1.074257693
1.074254526
1.074253253
1.074252764
1.074252584
1.074252521
1.074252499
1.074252492
1.07425249
1.074252489
1.074252489
1.074252489
1.074252489
1.074252489
1.074252489
1.074252489
1.074252489
1.074252489
1.074252489
1.074252489
1.074252489
1.074252489
1.074252489
1.074252489
1.074252489
1.074252489
1.074252489
1.074252489
55297.42493
55297.41274
55297.32806
55297.08707
55296.58437
55295.68704
55294.32976
55292.73224
1.113901368
1.103450845
1.095225563
1.08879338
1.083910646
1.080369823
1.077938241
1.076362812
1.075400635
1.074846356
1.074544772
1.074389518
1.074313759
1.074278651
1.074263171
1.074256665
1.074254054
1.074253052
1.074252684
1.074252554
1.07425251
1.074252495
1.074252491
1.074252489
1.074252489
1.074252489
1.074252489
1.074252489
1.074252489
1.074252489
1.074252489
1.074252489
1.074252489
1.074252489
1.074252489
1.074252489
1.074252489
1.074252489
1.074252489
1.074252489
1.074252489
1.074252489
55297.61128
55297.62594
55297.60233
55297.44435
55297.02744
55296.17866
55294.71462
55292.78942
1.140969853
1.126132512
1.113075665
1.101953156
1.093007985
1.086279483
1.081554153
1.078451471
1.076542016
1.075437601
1.074835634
1.074525651
1.074374479
1.074304503
1.074273694
1.074260766
1.074255586
1.074253602
1.074252873
1.074252617
1.07425253
1.074252501
1.074252493
1.07425249
1.074252489
1.074252489
1.074252489
1.074252489
1.074252489
1.074252489
1.074252489
1.074252489
1.074252489
1.074252489
1.074252489
1.074252489
1.074252489
1.074252489
1.074252489
1.074252489
1.074252489
1.074252489
55297.80427
55297.83117
55297.8597
55297.78919
55297.47502
55296.70782
55295.19658
55292.85175
1.193197658
1.170436651
1.14799576
1.127591985
1.110616978
1.097637752
1.088457365
1.082415049
1.078696583
1.076548547
1.075379947
1.074779489
1.074487333
1.074352412
1.074293142
1.074268327
1.074258405
1.074254611
1.07425322
1.074252732
1.074252566
1.074252513
1.074252496
1.074252491
1.074252489
1.074252489
1.074252489
1.074252489
1.074252489
1.074252489
1.074252489
1.074252489
1.074252489
1.074252489
1.074252489
1.074252489
1.074252489
1.074252489
1.074252489
1.074252489
1.074252489
1.074252489
55298.01365
55298.04305
55298.10478
55298.11965
55297.92312
55297.27154
55295.77815
55293.66004
1.296197135
1.25780648
1.216150397
1.176922744
1.144006278
1.118892828
1.101232852
1.089684117
1.082619145
1.07855907
1.07636014
1.075234677
1.07468897
1.074437735
1.074327681
1.07428172
1.074263387
1.07425639
1.074253832
1.074252934
1.074252631
1.074252533
1.074252502
1.074252493
1.07425249
1.074252489
1.074252489
1.074252489
1.074252489
1.074252489
1.074252489
1.074252489
1.074252489
1.074252489
1.074252489
1.074252489
1.074252489
1.074252489
1.074252489
1.074252489
1.074252489
1.074252489
55298.23998
55298.27274
55298.34662
55298.43643
55298.36955
55297.86883
55296.45741
55296.59379
1.506457652
1.433381709
1.349745298
1.271051614
1.206153691
1.157636737
1.124137265
1.102551581
1.089495865
1.082057655
1.078055858
1.076018413
1.075034768
1.074583564
1.074386537
1.074304482
1.074271834
1.074259402
1.074254864
1.074253275
1.074252739
1.074252566
1.074252512
1.074252495
1.074252491
1.074252489
1.074252489
1.074252489
1.074252489
1.074252489
1.074252489
1.074252489
1.074252489
1.074252489
1.074252489
1.074252489
1.074252489
1.074252489
1.074252489
1.074252489
1.074252489
1.074252489
55298.48267
55298.51719
55298.60407
55298.74332
55298.81448
55298.50457
55297.25747
55294.12516
1.961902434
1.800504545
1.616934134
1.451100598
1.320442656
1.226653912
1.163961505
1.124530984
1.101093121
1.087903472
1.080869806
1.077312077
1.075603115
1.07482239
1.074482631
1.074341547
1.074285555
1.074264283
1.074256535
1.074253825
1.074252914
1.07425262
1.074252528
1.0742525
1.074252492
1.07425249
1.074252489
1.074252489
1.074252489
1.074252489
1.074252489
1.074252489
1.074252489
1.074252489
1.074252489
1.074252489
1.074252489
1.074252489
1.074252489
1.074252489
1.074252489
1.074252489
55298.74122
55298.77809
55298.8723
55299.04742
55299.25581
55299.18174
55298.20591
55294.6787
3.051545381
2.625824688
2.175846665
1.802349238
1.53037448
1.347531652
1.231295727
1.160781402
1.119896605
1.097271436
1.085342326
1.079355946
1.076496918
1.075196582
1.074632722
1.074399285
1.074306879
1.074271853
1.07425912
1.074254676
1.074253184
1.074252702
1.074252552
1.074252507
1.074252494
1.07425249
1.074252489
1.074252489
1.074252489
1.074252489
1.074252489
1.074252489
1.074252489
1.074252489
1.074252489
1.074252489
1.074252489
1.074252489
1.074252489
1.074252489
1.074252489
1.074252489
55299.01517
55299.05515
55299.1589
55299.36369
55299.68144
55299.88956
55299.30821
55295.99795
6.071209614
4.699282564
3.436043105
2.516608025
1.921094938
1.557422309
1.342455665
1.218584969
1.14919915
1.111652745
1.092140508
1.082441423
1.07783951
1.07575649
1.074856598
1.074485176
1.074338529
1.074283065
1.074262943
1.074255932
1.074253582
1.074252824
1.074252588
1.074252517
1.074252497
1.074252491
1.074252489
1.074252489
1.074252489
1.074252489
1.074252489
1.074252489
1.074252489
1.074252489
1.074252489
1.074252489
1.074252489
1.074252489
1.074252489
1.074252489
1.074252489
1.074252489
55299.3036
55299.34731
55299.46355
55299.69198
55300.08938
55300.59447
55300.52842
55297.8645
16.06079396
10.67986934
6.574566105
4.061500827
2.668798121
1.922051129
1.522467991
1.307839909
1.193077319
1.132776198
1.102005286
1.086883535
1.079761938
1.076554998
1.075174867
1.074606963
1.074383304
1.074298896
1.074268332
1.074257699
1.074254141
1.074252995
1.074252638
1.074252532
1.074252501
1.074252492
1.07425249
1.074252489
1.074252489
1.074252489
1.074252489
1.074252489
1.074252489
1.074252489
1.074252489
1.074252489
1.074252489
1.074252489
1.074252489
1.074252489
1.074252489
1.074252489
55299.60413
55299.65325
55299.78642
55300.0489
55300.51035
55301.23259
55301.78902
55300.16949
54.40735773
30.22549715
15.21122189
7.642979748
4.153194817
2.560097141
1.809465941
1.441436773
1.256169279
1.162413107
1.115642256
1.092968372
1.082379669
1.077637778
1.075605079
1.074771164
1.074443543
1.074320156
1.074275556
1.074260065
1.074254889
1.074253223
1.074252706
1.074252551
1.074252506
1.074252493
1.07425249
1.074252489
1.074252489
1.074252489
1.074252489
1.074252489
1.074252489
1.074252489
1.074252489
1.074252489
1.074252489
1.074252489
1.074252489
1.074252489
1.074252489
1.074252489
55299.91186
55299.96877
55300.12367
55300.4327
55300.96664
55301.83975
55302.98917
55302.64399
207.4213642
97.52851197
40.43559866
16.39105393
7.196528583
3.684621981
2.260046887
1.635118458
1.343121802
1.202033812
1.133550892
1.10087553
1.085759327
1.07902968
1.076156376
1.074981064
1.07452039
1.074347229
1.074284742
1.07426307
1.074255837
1.074253512
1.074252791
1.074252575
1.074252513
1.074252495
1.07425249
1.074252489
1.074252489
1.074252489
1.074252489
1.074252489
1.074252489
1.074252489
1.074252489
1.074252489
1.074252489
1.074252489
1.074252489
1.074252489
1.074252489
1.074252489
55300.21945
55300.28663
55300.46949
55300.83861
55301.47982
55302.50843
55304.03237
55304.95738
750.4277552
314.9361368
112.70593
37.88140717
13.48863372
5.658447775
2.952486825
1.905902154
1.457523605
1.252302909
1.155803834
1.110584612
1.089880132
1.080719296
1.076823528
1.07523448
1.074612994
1.0743798
1.074295778
1.074266675
1.074256973
1.074253858
1.074252893
1.074252604
1.074252521
1.074252497
1.074252491
1.074252489
1.074252489
1.074252489
1.074252489
1.074252489
1.074252489
1.074252489
1.074252489
1.074252489
1.074252489
1.074252489
1.074252489
1.074252489
1.074252489
1.074252489
55300.5171
55300.59629
55300.81193
55301.24905
55302.01624
55303.21944
55304.98169
55306.88964
2255.745142
903.4113342
297.9441093
87.54995232
26.06360861
9.024986703
3.979126335
2.267507907
1.600155475
1.312447155
1.181813101
1.121785889
1.094599226
1.082645575
1.077581865
1.075521903
1.074717841
1.074416625
1.074308239
1.074270741
1.074258254
1.074254247
1.074253007
1.074252637
1.07425253
1.0742525
1.074252492
1.07425249
1.074252489
1.074252489
1.074252489
1.074252489
1.074252489
1.074252489
1.074252489
1.074252489
1.074252489
1.074252489
1.074252489
1.074252489
1.074252489
1.074252489
55300.7933
55300.88547
55301.13677
55301.64765
55302.55125
55303.96762
55305.95302
55308.36363
5324.074581
2146.168702
691.7388047
188.3784174
49.09677576
14.40404894
5.412807801
2.721252861
1.766615723
1.379621465
1.210150187
1.133824996
1.099633373
1.084691481
1.078385047
1.075825719
1.074828498
1.07445544
1.07432136
1.074275018
1.0742596
1.074254656
1.074253127
1.074252671
1.074252539
1.074252502
1.074252492
1.07425249
1.074252489
1.074252489
1.074252489
1.074252489
1.074252489
1.074252489
1.074252489
1.074252489
1.074252489
1.074252489
1.074252489
1.074252489
1.074252489
1.074252489
55301.03571
55301.14095
55301.42794
55302.01235
55303.04491
55304.65674
55306.79836
55309.42724
9935.803571
4144.669065
1355.033212
358.2494359
85.68940644
22.09958193
7.235892641
3.243056357
1.944972822
1.448529282
1.238511474
1.145714821
1.104569386
1.086689338
1.079167391
1.076121139
1.074935954
1.074493092
1.074334075
1.07427916
1.074260902
1.074255052
1.074253244
1.074252704
1.074252548
1.074252505
1.074252493
1.07425249
1.074252489
1.074252489
1.074252489
1.074252489
1.074252489
1.074252489
1.074252489
1.074252489
1.074252489
1.074252489
1.074252489
1.074252489
1.074252489
1.074252489
55301.23203
55301.3494
55301.66929
55302.32141
55303.46906
55305.24218
55307.50785
55310.15182
15172.69159
6589.261171
2217.653238
585.1957081
133.413599
31.44271441
9.251767766
3.772545452
2.114932243
1.511655597
1.263918451
1.156238695
1.108910408
1.088440154
1.079851536
1.076379108
1.075029688
1.074525908
1.074345149
1.074282765
1.074262035
1.074255396
1.074253345
1.074252733
1.074252556
1.074252507
1.074252493
1.07425249
1.074252489
1.074252489
1.074252489
1.074252489
1.074252489
1.074252489
1.074252489
1.074252489
1.074252489
1.074252489
1.074252489
1.074252489
1.074252489
1.074252489
55301.37093
55301.49813
55301.84481
55302.55268
55303.79582
55305.69249
55308.06158
55310.60073
19669.04441
8824.109813
3051.801052
812.2260384
180.9822791
40.36095398
11.05293823
4.215842418
2.250375437
1.560403659
1.283189329
1.164144414
1.112154937
1.089745123
1.080360633
1.076570867
1.075099309
1.074550266
1.074353365
1.074285438
1.074262875
1.074255651
1.074253419
1.074252754
1.074252562
1.074252508
1.074252494
1.07425249
1.074252489
1.074252489
1.074252489
1.074252489
1.074252489
1.074252489
1.074252489
1.074252489
1.074252489
1.074252489
1.074252489
1.074252489
1.074252489
1.074252489
55301.44318
55301.57614
55301.93859
55302.67987
55303.98206
55305.95112
55308.40801
55310.81798
22243.3605
10155.79583
3568.012311
956.4306971
211.3074148
45.92209392
12.13335231
4.471242469
2.325995342
1.587073174
1.293610144
1.16839288
1.113892827
1.090442883
1.080632566
1.076673226
1.075136454
1.074563257
1.074357745
1.074286863
1.074263322
1.074255787
1.074253459
1.074252765
1.074252565
1.074252509
1.074252494
1.07425249
1.074252489
1.074252489
1.074252489
1.074252489
1.074252489
1.074252489
1.074252489
1.074252489
1.074252489
1.074252489
1.074252489
1.074252489
1.074252489
1.074252489
55301.44318
55301.57614
55301.93859
55302.67987
55303.98206
55305.95112
55308.40801
55310.81799
22243.36072
10155.79576
3568.012287
956.4306915
211.3074138
45.92209378
12.13335229
4.471242465
2.325995341
1.587073174
1.293610144
1.16839288
1.113892827
1.090442883
1.080632566
1.076673226
1.075136454
1.074563257
1.074357745
1.074286863
1.074263322
1.074255787
1.074253459
1.074252765
1.074252565
1.074252509
1.074252494
1.07425249
1.074252489
1.074252489
1.074252489
1.074252489
1.074252489
1.074252489
1.074252489
1.074252489
1.074252489
1.074252489
1.074252489
1.074252489
1.074252489
1.074252489
55301.37093
55301.49813
55301.84481
55302.55268
55303.79582
55305.69249
55308.06158
55310.60046
19669.04531
8824.109639
3051.800997
812.2260259
180.982277
40.36095367
11.05293818
4.215842409
2.250375435
1.560403658
1.283189329
1.164144414
1.112154937
1.089745123
1.080360633
1.076570867
1.075099309
1.074550266
1.074353365
1.074285438
1.074262875
1.074255651
1.074253419
1.074252754
1.074252562
1.074252508
1.074252494
1.07425249
1.074252489
1.074252489
1.074252489
1.074252489
1.074252489
1.074252489
1.074252489
1.074252489
1.074252489
1.074252489
1.074252489
1.074252489
1.074252489
1.074252489
55301.23203
55301.3494
55301.66929
55302.32141
55303.46906
55305.24218
55307.50785
55310.15136
15172.69283
6589.260984
2217.653186
585.1956977
133.4135974
31.44271419
9.251767735
3.772545446
2.114932242
1.511655596
1.263918451
1.156238695
1.108910408
1.088440154
1.079851536
1.076379108
1.075029688
1.074525908
1.074345149
1.074282765
1.074262035
1.074255396
1.074253345
1.074252733
1.074252556
1.074252507
1.074252493
1.07425249
1.074252489
1.074252489
1.074252489
1.074252489
1.074252489
1.074252489
1.074252489
1.074252489
1.074252489
1.074252489
1.074252489
1.074252489
1.074252489
1.074252489
55301.03571
55301.14095
55301.42794
55302.01235
55303.04491
55304.65674
55306.79836
55309.42646
9935.804264
4144.668975
1355.033193
358.2494332
85.68940623
22.09958194
7.235892654
3.243056363
1.944972824
1.448529283
1.238511475
1.145714821
1.104569386
1.086689338
1.079167391
1.076121139
1.074935954
1.074493092
1.074334075
1.07427916
1.074260902
1.074255052
1.074253244
1.074252704
1.074252548
1.074252505
1.074252493
1.07425249
1.074252489
1.074252489
1.074252489
1.074252489
1.074252489
1.074252489
1.074252489
1.074252489
1.074252489
1.074252489
1.074252489
1.074252489
1.074252489
1.074252489
55300.7933
55300.88547
55301.13677
55301.64766
55302.55125
55303.96762
55305.95302
55308.36224
5324.074389
2146.16873
691.7388162
188.3784208
49.0967766
14.40404914
5.412807854
2.721252877
1.766615729
1.379621468
1.210150188
1.133824996
1.099633374
1.084691481
1.078385047
1.075825719
1.074828498
1.07445544
1.07432136
1.074275018
1.0742596
1.074254656
1.074253127
1.074252671
1.074252539
1.074252502
1.074252492
1.07425249
1.074252489
1.074252489
1.074252489
1.074252489
1.074252489
1.074252489
1.074252489
1.074252489
1.074252489
1.074252489
1.074252489
1.074252489
1.074252489
1.074252489
55300.5171
55300.59629
55300.81193
55301.24905
55302.01624
55303.21944
55304.98169
55306.89146
2255.744651
903.4114036
297.9441285
87.54995697
26.06360968
9.024986965
3.979126408
2.267507931
1.600155484
1.312447158
1.181813103
1.121785889
1.094599226
1.082645575
1.077581865
1.075521903
1.074717841
1.074416625
1.074308239
1.074270741
1.074258254
1.074254247
1.074253007
1.074252637
1.07425253
1.0742525
1.074252492
1.07425249
1.074252489
1.074252489
1.074252489
1.074252489
1.074252489
1.074252489
1.074252489
1.074252489
1.074252489
1.074252489
1.074252489
1.074252489
1.074252489
1.074252489
55300.21945
55300.28663
55300.46949
55300.83861
55301.47982
55302.50843
55304.03237
55304.95881
750.4276706
314.936179
112.7059421
37.88141032
13.48863453
5.658448001
2.952486896
1.905902179
1.457523615
1.252302913
1.155803836
1.110584612
1.089880132
1.080719296
1.076823528
1.07523448
1.074612994
1.0743798
1.074295778
1.074266675
1.074256973
1.074253858
1.074252893
1.074252604
1.074252521
1.074252497
1.074252491
1.074252489
1.074252489
1.074252489
1.074252489
1.074252489
1.074252489
1.074252489
1.074252489
1.074252489
1.074252489
1.074252489
1.074252489
1.074252489
1.074252489
1.074252489
55299.91186
55299.96877
55300.12367
55300.4327
55300.96664
55301.83975
55302.98917
55302.64576
207.4213885
97.52852748
40.43560384
16.39105551
7.196529066
3.68462214
2.260046945
1.635118481
1.343121811
1.202033816
1.133550894
1.100875531
1.085759327
1.079029681
1.076156376
1.074981064
1.07452039
1.074347229
1.074284742
1.07426307
1.074255837
1.074253512
1.074252791
1.074252575
1.074252513
1.074252495
1.07425249
1.074252489
1.074252489
1.074252489
1.074252489
1.074252489
1.074252489
1.074252489
1.074252489
1.074252489
1.074252489
1.074252489
1.074252489
1.074252489
1.074252489
1.074252489
55299.60413
55299.65325
55299.78642
55300.0489
55300.51035
55301.23259
55301.78902
55300.16881
54.40736692
30.22550184
15.21122377
7.642980442
4.153195074
2.560097241
1.809465982
1.441436791
1.256169287
1.16241311
1.115642257
1.092968373
1.082379669
1.077637778
1.075605079
1.074771164
1.074443543
1.074320156
1.074275556
1.074260065
1.074254889
1.074253223
1.074252706
1.074252551
1.074252506
1.074252493
1.07425249
1.074252489
1.074252489
1.074252489
1.074252489
1.074252489
1.074252489
1.074252489
1.074252489
1.074252489
1.074252489
1.074252489
1.074252489
1.074252489
1.074252489
1.074252489
55299.3036
55299.34731
55299.46355
55299.69198
55300.08938
55300.59447
55300.52842
55297.86021
16.0607963
10.67987072
6.574566767
4.061501121
2.668798251
1.922051188
1.522468018
1.307839922
1.193077325
1.1327762
1.102005287
1.086883536
1.079761938
1.076554998
1.075174867
1.074606963
1.074383304
1.074298896
1.074268332
1.074257699
1.074254141
1.074252995
1.074252638
1.074252532
1.074252501
1.074252492
1.07425249
1.074252489
1.074252489
1.074252489
1.074252489
1.074252489
1.074252489
1.074252489
1.074252489
1.074252489
1.074252489
1.074252489
1.074252489
1.074252489
1.074252489
1.074252489
55299.01517
55299.05515
55299.1589
55299.36369
55299.68144
55299.88956
55299.30821
55295.99715
6.07121029
4.699283003
3.436043346
2.516608151
1.921095002
1.557422342
1.342455681
1.218584977
1.149199154
1.111652747
1.092140509
1.082441423
1.07783951
1.07575649
1.074856598
1.074485176
1.074338529
1.074283065
1.074262943
1.074255932
1.074253582
1.074252824
1.074252588
1.074252517
1.074252497
1.074252491
1.074252489
1.074252489
1.074252489
1.074252489
1.074252489
1.074252489
1.074252489
1.074252489
1.074252489
1.074252489
1.074252489
1.074252489
1.074252489
1.074252489
1.074252489
1.074252489
55298.74122
55298.77809
55298.8723
55299.04742
55299.25581
55299.18174
55298.20591
55294.68737
3.05154566
2.625824844
2.175846757
1.802349292
1.530374511
1.347531669
1.231295736
1.160781407
1.119896607
1.097271437
1.085342327
1.079355946
1.076496918
1.075196582
1.074632722
1.074399285
1.074306879
1.074271853
1.07425912
1.074254676
1.074253184
1.074252702
1.074252552
1.074252507
1.074252494
1.07425249
1.074252489
1.074252489
1.074252489
1.074252489
1.074252489
1.074252489
1.074252489
1.074252489
1.074252489
1.074252489
1.074252489
1.074252489
1.074252489
1.074252489
1.074252489
1.074252489
55298.48267
55298.51719
55298.60407
55298.74332
55298.81448
55298.50457
55297.25748
55294.11381
1.961902585
1.800504607
1.616934171
1.451100621
1.32044267
1.226653921
1.16396151
1.124530987
1.101093122
1.087903473
1.080869806
1.077312078
1.075603115
1.07482239
1.074482631
1.074341547
1.074285555
1.074264283
1.074256535
1.074253825
1.074252914
1.07425262
1.074252528
1.0742525
1.074252492
1.07425249
1.074252489
1.074252489
1.074252489
1.074252489
1.074252489
1.074252489
1.074252489
1.074252489
1.074252489
1.074252489
1.074252489
1.074252489
1.074252489
1.074252489
1.074252489
1.074252489
55298.23998
55298.27274
55298.34662
55298.43643
55298.36955
55297.86884
55296.45742
55296.43978
1.506457742
1.433381734
1.349745312
1.271051623
1.206153697
1.157636741
1.124137268
1.102551583
1.089495866
1.082057656
1.078055858
1.076018413
1.075034768
1.074583564
1.074386537
1.074304482
1.074271834
1.074259402
1.074254864
1.074253275
1.074252739
1.074252566
1.074252512
1.074252495
1.074252491
1.074252489
1.074252489
1.074252489
1.074252489
1.074252489
1.074252489
1.074252489
1.074252489
1.074252489
1.074252489
1.074252489
1.074252489
1.074252489
1.074252489
1.074252489
1.074252489
1.074252489
55298.01365
55298.04305
55298.10478
55298.11965
55297.92313
55297.27154
55295.77815
55293.65889
1.296197176
1.257806487
1.2161504
1.176922746
1.14400628
1.118892829
1.101232853
1.089684118
1.082619146
1.07855907
1.07636014
1.075234677
1.07468897
1.074437735
1.074327681
1.07428172
1.074263387
1.07425639
1.074253832
1.074252934
1.074252631
1.074252533
1.074252502
1.074252493
1.07425249
1.074252489
1.074252489
1.074252489
1.074252489
1.074252489
1.074252489
1.074252489
1.074252489
1.074252489
1.074252489
1.074252489
1.074252489
1.074252489
1.074252489
1.074252489
1.074252489
1.074252489
55297.80427
55297.83117
55297.8597
55297.78919
55297.47502
55296.70782
55295.19658
55292.85175
1.19319766
1.170436649
1.147995758
1.127591984
1.110616978
1.097637752
1.088457365
1.082415049
1.078696583
1.076548547
1.075379947
1.074779489
1.074487333
1.074352412
1.074293142
1.074268327
1.074258405
1.074254611
1.07425322
1.074252732
1.074252566
1.074252513
1.074252496
1.074252491
1.074252489
1.074252489
1.074252489
1.074252489
1.074252489
1.074252489
1.074252489
1.074252489
1.074252489
1.074252489
1.074252489
1.074252489
1.074252489
1.074252489
1.074252489
1.074252489
1.074252489
1.074252489
55297.61128
55297.62594
55297.60234
55297.44436
55297.02744
55296.17866
55294.71462
55292.79112
1.140969846
1.126132506
1.113075661
1.101953154
1.093007983
1.086279482
1.081554153
1.078451471
1.076542016
1.075437601
1.074835634
1.074525651
1.074374479
1.074304503
1.074273694
1.074260766
1.074255586
1.074253602
1.074252873
1.074252617
1.07425253
1.074252501
1.074252493
1.07425249
1.074252489
1.074252489
1.074252489
1.074252489
1.074252489
1.074252489
1.074252489
1.074252489
1.074252489
1.074252489
1.074252489
1.074252489
1.074252489
1.074252489
1.074252489
1.074252489
1.074252489
1.074252489
55297.42493
55297.41274
55297.32807
55297.08707
55296.58437
55295.68704
55294.32976
55292.73262
1.113901359
1.103450838
1.095225558
1.088793377
1.083910645
1.080369822
1.07793824
1.076362812
1.075400635
1.074846356
1.074544772
1.074389518
1.074313759
1.074278651
1.074263171
1.074256665
1.074254054
1.074253052
1.074252684
1.074252554
1.07425251
1.074252495
1.074252491
1.074252489
1.074252489
1.074252489
1.074252489
1.074252489
1.074252489
1.074252489
1.074252489
1.074252489
1.074252489
1.074252489
1.074252489
1.074252489
1.074252489
1.074252489
1.074252489
1.074252489
1.074252489
1.074252489
55297.22939
55297.1824
55297.03502
55296.71844
55296.14648
55295.23196
55294.03045
55292.69142
1.099485582
1.091678831
1.086092446
1.082103301
1.079293586
1.077367761
1.07609725
1.075296385
1.074816099
1.07454264
1.074394916
1.074319182
1.074282303
1.074265225
1.074257693
1.074254526
1.074253253
1.074252764
1.074252584
1.074252521
1.074252499
1.074252492
1.07425249
1.074252489
1.074252489
1.074252489
1.074252489
1.074252489
1.074252489
1.074252489
1.074252489
1.074252489
1.074252489
1.074252489
1.074252489
1.074252489
1.074252489
1.074252489
1.074252489
1.074252489
1.074252489
1.074252489
55297.01279
55296.9285
55296.71938
55296.33235
55295.70182
55294.8009
55293.77543
55292.66354
1.091368244
1.085353059
1.08134026
1.078693789
1.076970103
1.075867886
1.075180888
1.074766365
1.074525609
1.074391586
1.074320286
1.074284096
1.074266582
1.074258502
1.074254945
1.07425345
1.07425285
1.074252619
1.074252534
1.074252504
1.074252494
1.07425249
1.074252489
1.074252489
1.074252489
1.074252489
1.074252489
1.074252489
1.074252489
1.074252489
1.074252489
1.074252489
1.074252489
1.074252489
1.074252489
1.074252489
1.074252489
1.074252489
1.074252489
1.074252489
1.074252489
1.074252489
55296.7631
55296.64053
55296.36904
55295.91138
55295.2309
55294.39697
55293.54459
55292.64511
1.086344649
1.081703879
1.078747045
1.076908071
1.075788029
1.075119884
1.074729928
1.07450776
1.074384619
1.074318489
1.074284221
1.074267145
1.074258984
1.07425525
1.074253614
1.074252929
1.074252654
1.074252548
1.074252509
1.074252496
1.074252491
1.074252489
1.074252489
1.074252489
1.074252489
1.074252489
1.074252489
1.074252489
1.074252489
1.074252489
1.074252489
1.074252489
1.074252489
1.074252489
1.074252489
1.074252489
1.074252489
1.074252489
1.074252489
1.074252489
1.074252489
1.074252489
55296.45618
55296.29282
55295.95454
55295.42752
55294.7334
55294.01592
55293.32878
55292.63559
1.082835574
1.079354772
1.077198657
1.075907824
1.07515897
1.074737154
1.074505793
1.074381877
1.074316976
1.07428376
1.074267194
1.074259173
1.074255419
1.074253725
1.07425299
1.074252684
1.074252562
1.074252515
1.074252498
1.074252492
1.07425249
1.074252489
1.074252489
1.074252489
1.074252489
1.074252489
1.074252489
1.074252489
1.074252489
1.074252489
1.074252489
1.074252489
1.074252489
1.074252489
1.074252489
1.074252489
1.074252489
1.074252489
1.074252489
1.074252489
1.074252489
1.074252489
55296.03201
55295.82263
55295.41608
55294.84798
55294.21679
55293.64287
55293.12245
55292.62722
1.080071896
1.077632135
1.076147665
1.075279342
1.074791099
1.074526919
1.074388868
1.074318817
1.074284109
1.074267255
1.074259227
1.074255483
1.074253779
1.074253027
1.074252705
1.074252573
1.07425252
1.0742525
1.074252493
1.07425249
1.074252489
1.074252489
1.074252489
1.074252489
1.074252489
1.074252489
1.074252489
1.074252489
1.074252489
1.074252489
1.074252489
1.074252489
1.074252489
1.074252489
1.074252489
1.074252489
1.074252489
1.074252489
1.074252489
1.074252489
1.074252489
1.074252489
55295.33665
55295.08017
55294.63865
55294.12559
55293.65721
55293.26523
55292.92362
55292.61384
1.077671521
1.076204557
1.075327023
1.074821597
1.074542689
1.074395426
1.074320841
1.074284401
1.074267101
1.074259065
1.074255396
1.074253748
1.074253021
1.074252708
1.074252576
1.074252522
1.074252501
1.074252493
1.07425249
1.074252489
1.074252489
1.074252489
1.074252489
1.074252489
1.074252489
1.074252489
1.074252489
1.074252489
1.074252489
1.074252489
1.074252489
1.074252489
1.074252489
1.074252489
1.074252489
1.074252489
1.074252489
1.074252489
1.074252489
1.074252489
1.074252489
1.074252489
55293.97602
55293.74429
55293.43542
55293.18198
55292.99306
55292.84235
55292.71384