/*--------------------------------*- C++ -*----------------------------------*\
  =========                 |
  \\      /  F ield         | OpenFOAM: The Open Source CFD Toolbox
   \\    /   O peration     | Website:  https://openfoam.org
    \\  /    A nd           | Version:  6
     \\/     M anipulation  |
\*---------------------------------------------------------------------------*/
FoamFile
{
    version     2.0;
    format      ascii;
    class       volScalarField;
    location    "0.11";
    object      Temperature;
}
// * * * * * * * * * * * * * * * * * * * * * * * * * * * * * * * * * * * * * //

dimensions      [0 0 0 1 0 0 0];

internalField   nonuniform List<scalar> 
2500
(
319.9953953
316.4645246
311.8787401
308.2144944
305.5388699
303.4376121
301.668435
300.0663107
300.0266173
300.0149461
300.0081349
300.0042597
300.0021427
300.0010378
300.0004864
300.000222
300.0000993
300.0000437
300.0000189
300.000008
300.0000034
300.0000014
300.0000005
300.0000002
300.0000001
300
300
300
300
300
300
300
300
300
300
300
300
300
300
300
300
300
300
300
300
300
300
300
300
300
342.4149492
337.9494204
330.5311412
322.3110638
315.1560709
309.4082264
304.5670875
300.1873695
300.0793251
300.0453218
300.02496
300.0132246
300.0067456
300.0033235
300.0015897
300.0007424
300.00034
300.000153
300.0000677
300.0000293
300.0000124
300.0000051
300.000002
300.0000008
300.0000003
300.0000001
300
300
300
300
300
300
300
300
300
300
300
300
300
300
300
300
300
300
300
300
300
300
300
300
355.1287563
351.1999496
343.8162107
334.0052303
323.7417751
314.9422909
307.3664045
300.3093018
300.1348913
300.078424
300.0440093
300.0238577
300.0125189
300.0063806
300.0031717
300.001543
300.0007357
300.0003437
300.0001568
300.0000697
300.0000301
300.0000125
300.000005
300.000002
300.0000007
300.0000003
300.0000001
300
300
300
300
300
300
300
300
300
300
300
300
300
300
300
300
300
300
300
300
300
300
300
363.3589031
360.1429788
353.6630337
344.020395
332.0957316
320.6075845
310.3264306
300.4431219
300.1987427
300.1183213
300.0683894
300.0384515
300.0210667
300.0112678
300.0058907
300.0030097
300.0015003
300.0007277
300.0003422
300.0001556
300.0000682
300.0000288
300.0000117
300.0000046
300.0000017
300.0000006
300.0000002
300.0000001
300
300
300
300
300
300
300
300
300
300
300
300
300
300
300
300
300
300
300
300
300
300
369.5567313
367.0558506
361.6369174
352.8558162
340.559585
326.6099847
313.4847918
300.5985335
300.2796262
300.172646
300.1042734
300.0616638
300.0356778
300.0201624
300.0111016
300.0059371
300.0030737
300.0015356
300.0007384
300.0003411
300.0001512
300.0000643
300.0000262
300.0000102
300.0000038
300.0000014
300.0000005
300.0000002
300.0000001
300
300
300
300
300
300
300
300
300
300
300
300
300
300
300
300
300
300
300
300
300
374.7572087
372.9854486
368.6623782
360.920199
348.9792124
333.2245846
316.9354102
300.7951345
300.39505
300.2568447
300.1642759
300.1030589
300.0631131
300.0375372
300.0215822
300.0119496
300.0063526
300.003236
300.0015775
300.0007356
300.000328
300.00014
300.0000572
300.0000224
300.0000084
300.000003
300.0000011
300.0000004
300.0000001
300
300
300
300
300
300
300
300
300
300
300
300
300
300
300
300
300
300
300
300
300
379.3883054
378.3740173
375.2288503
368.6457317
357.3186093
340.5830753
320.8363352
301.0719997
300.580632
300.4022444
300.2739196
300.1819329
300.116963
300.0723433
300.0428659
300.0242673
300.0131064
300.006749
300.0033136
300.0015519
300.0006939
300.0002965
300.0001212
300.0000474
300.0000178
300.0000064
300.0000022
300.0000007
300.0000002
300.0000001
300
300
300
300
300
300
300
300
300
300
300
300
300
300
300
300
300
300
300
300
383.6681777
383.3986581
381.5371295
376.3355436
365.9276807
348.7104481
325.5380888
301.5077443
300.9074107
300.6709581
300.4835108
300.3360864
300.2236746
300.1418819
300.0855757
300.0490335
300.0266908
300.0138104
300.0067989
300.0031882
300.0014258
300.0006089
300.0002487
300.0000972
300.0000365
300.0000131
300.0000045
300.0000015
300.0000005
300.0000001
300
300
300
300
300
300
300
300
300
300
300
300
300
300
300
300
300
300
300
300
387.8378575
388.1692959
387.635777
384.1003796
375.0703678
357.9362564
331.789272
302.2539672
301.5115663
301.1820023
300.8889425
300.6370009
300.4328142
300.2782891
300.169278
300.0974757
300.0531957
300.0275509
300.0135619
300.0063545
300.0028385
300.0012105
300.0004936
300.0001927
300.0000721
300.0000259
300.000009
300.000003
300.000001
300.0000003
300.0000001
300
300
300
300
300
300
300
300
300
300
300
300
300
300
300
300
300
300
300
392.2531113
392.8756371
393.5384319
391.9042999
384.7817849
368.4282352
339.9643789
303.5692773
302.6442158
302.1559055
301.6666054
301.2147153
300.8335057
300.5387107
300.3284159
300.1891799
300.1031602
300.0533498
300.0262127
300.0122572
300.0054636
300.0023252
300.0009462
300.0003687
300.0001378
300.0000494
300.000017
300.0000057
300.0000018
300.0000006
300.0000002
300
300
300
300
300
300
300
300
300
300
300
300
300
300
300
300
300
300
300
397.1580994
397.8561441
399.3296309
399.6866698
395.022167
380.3043614
350.3815316
305.9074592
304.761917
303.9896829
303.1291895
302.2960717
301.5788978
301.0200297
300.6206947
300.356623
300.1939036
300.0999787
300.0489787
300.0228381
300.010153
300.0043102
300.0017499
300.0006804
300.0002537
300.0000909
300.0000313
300.0000104
300.0000033
300.000001
300.0000003
300.0000001
300
300
300
300
300
300
300
300
300
300
300
300
300
300
300
300
300
300
402.6001872
403.3995424
405.2145366
407.4434932
405.7813951
393.7529246
363.3872322
310.109611
308.6831503
307.3752032
305.8084017
304.2586338
302.919223
301.8780498
301.1376611
300.6507322
300.3523153
300.1809403
300.0883196
300.041046
300.0181927
300.0077021
300.0031193
300.0012101
300.0004503
300.000161
300.0000553
300.0000183
300.0000058
300.0000018
300.0000005
300.0000002
300
300
300
300
300
300
300
300
300
300
300
300
300
300
300
300
300
300
408.6032016
409.4711783
411.6727822
415.2511306
417.1040957
409.1529801
380.0003652
317.6597034
315.8229699
313.4669959
310.5647678
307.6978592
305.2406409
303.3488592
302.0159212
301.1465225
300.6175709
300.3157238
300.1534848
300.0710741
300.0314008
300.0132559
300.0053548
300.0020726
300.0007697
300.0002746
300.0000942
300.0000311
300.0000099
300.000003
300.0000009
300.0000003
300.0000001
300
300
300
300
300
300
300
300
300
300
300
300
300
300
300
300
300
415.1985301
416.1559271
418.622835
423.2881619
428.9772197
426.9386877
401.7737194
331.0878862
328.5289911
324.0945571
318.7121684
313.4956906
309.1009491
305.7664739
303.4454308
301.9468066
301.0427126
300.5304464
300.2567613
300.118451
300.0521592
300.0219549
300.0088458
300.003416
300.001266
300.0004508
300.0001544
300.0000509
300.0000162
300.000005
300.0000015
300.0000004
300.0000001
300
300
300
300
300
300
300
300
300
300
300
300
300
300
300
300
300
422.422937
423.4978205
426.3131591
431.9824526
441.0848956
447.2596702
430.4360456
354.4311122
350.4855208
341.9763569
332.1199226
322.8635336
315.2445573
309.5661793
305.6688963
303.1807983
301.6934863
300.857104
300.4130528
300.1898263
300.0833116
300.0349658
300.014052
300.0054142
300.0020025
300.0007118
300.0002434
300.0000802
300.0000255
300.0000078
300.0000023
300.0000007
300.0000002
300
300
300
300
300
300
300
300
300
300
300
300
300
300
300
300
300
430.3058138
431.5254686
434.803721
441.3936145
453.3483214
469.5134489
467.3392063
393.5423088
387.0646388
370.833982
353.2212742
337.3146367
324.5702642
315.2588724
308.9645166
304.9936876
302.6425344
301.3305475
300.6383965
300.2922806
300.1278589
300.0535101
300.0214512
300.0082471
300.0030443
300.0010802
300.0003689
300.0001213
300.0000385
300.0000118
300.0000035
300.000001
300.0000003
300.0000001
300
300
300
300
300
300
300
300
300
300
300
300
300
300
300
300
438.8382647
440.2647666
444.1790486
452.1024518
466.740468
491.6568358
512.7510186
455.8117241
445.3552227
415.2325016
384.8252176
358.5086291
338.0216617
323.3612023
313.604716
307.5237647
303.9574117
301.9825228
300.9471402
300.4320505
300.1884085
300.0786367
300.0314495
300.012066
300.0044459
300.001575
300.000537
300.0001764
300.0000559
300.0000171
300.0000051
300.0000014
300.0000004
300.0000001
300
300
300
300
300
300
300
300
300
300
300
300
300
300
300
300
447.9332445
449.6560622
454.4136001
464.2127549
482.1793833
514.7582348
565.0183502
548.8872479
533.465162
479.9304589
429.6245328
387.9188702
356.3790417
334.2732012
319.7879484
310.8662421
305.6822672
302.8328038
301.3478348
300.6127048
300.2663978
300.1109041
300.0442563
300.0169467
300.0062337
300.002205
300.0007508
300.0002464
300.000078
300.0000238
300.000007
300.000002
300.0000006
300.0000001
300
300
300
300
300
300
300
300
300
300
300
300
300
300
300
300
457.408557
459.5310487
465.4096923
477.7470286
500.8097306
542.8476595
619.9460254
678.3404442
658.6728303
568.5729123
489.3492554
426.3164657
379.9599278
348.1118972
327.5499825
315.0278179
307.8154832
303.8786168
301.8384269
300.8330446
300.3612124
300.1500248
300.0597464
300.0228379
300.0083877
300.0029629
300.0010077
300.0003303
300.0001044
300.0000319
300.0000094
300.0000027
300.0000007
300.0000002
300.0000001
300
300
300
300
300
300
300
300
300
300
300
300
300
300
300
466.9669122
469.5770105
476.8350844
492.2586857
521.8870073
576.2853646
680.11322
844.7496322
824.24605
681.7690492
563.6547106
473.1486736
408.2823053
364.5344008
336.6738456
319.8823012
310.2885341
305.0849127
302.4019399
301.0852539
300.4694224
300.1945612
300.0773433
300.0295181
300.0108264
300.0038198
300.0012977
300.000425
300.0001343
300.000041
300.0000121
300.0000034
300.000001
300.0000003
300.0000001
300
300
300
300
300
300
300
300
300
300
300
300
300
300
300
476.2008837
479.3634051
488.2038065
507.2211457
544.7531422
616.2273409
755.0974513
1039.23797
1025.355727
814.9895146
649.0441595
525.996197
439.7969861
382.6089629
346.6292305
325.142881
312.9536449
306.3790332
303.0042372
301.3539905
300.5844251
300.2417896
300.0959689
300.0365773
300.0133998
300.0047229
300.0016031
300.0005245
300.0001656
300.0000505
300.0000149
300.0000042
300.0000012
300.0000003
300.0000001
300
300
300
300
300
300
300
300
300
300
300
300
300
300
300
484.611151
488.3549571
498.8649051
521.7296211
567.7032482
658.2457154
835.2352143
1246.436198
1246.276625
957.2646011
738.3273534
580.3725126
471.8257886
400.8034362
356.5757224
330.3675644
315.5879618
307.6532579
303.5953961
301.6170652
300.6967577
300.2878361
300.1140997
300.0434398
300.0158985
300.0055988
300.001899
300.0006209
300.0001959
300.0000597
300.0000176
300.000005
300.0000014
300.0000004
300.0000001
300
300
300
300
300
300
300
300
300
300
300
300
300
300
300
491.6430221
495.9446297
508.0610288
534.6908291
589.0237009
698.7196248
916.9051891
1442.244528
1459.681171
1091.490613
821.0792245
630.0998298
500.8179911
417.1434104
365.453559
335.0082959
317.9187846
308.7771545
304.1154797
301.8480219
300.7952025
300.3281299
300.1299454
300.0494308
300.0180779
300.0063623
300.0021567
300.0007048
300.0002223
300.0000677
300.0000199
300.0000057
300.0000016
300.0000004
300.0000001
300
300
300
300
300
300
300
300
300
300
300
300
300
300
300
496.7427378
501.5059061
514.9643143
544.8184507
606.5733503
733.4055286
992.6596737
1597.760731
1630.892608
1197.23952
885.3955909
668.3566893
522.9508278
429.5437227
372.1599826
338.5013195
319.6681361
309.6187249
304.5041848
302.0203695
300.8685706
300.3581273
300.1417312
300.0538834
300.0196965
300.0069289
300.0023479
300.0007671
300.0002418
300.0000736
300.0000217
300.0000062
300.0000017
300.0000005
300.0000001
300
300
300
300
300
300
300
300
300
300
300
300
300
300
300
499.4372541
504.4728355
518.7306237
550.5535725
617.0515146
754.9301891
1046.764667
1685.737533
1726.88024
1255.795945
920.6951602
689.2174852
534.9608651
436.2477054
375.7753457
340.3801752
320.6074294
310.0699557
304.7123596
302.1125847
300.9077957
300.3741543
300.1480246
300.0562598
300.0205601
300.0072311
300.0024498
300.0008002
300.0002523
300.0000768
300.0000226
300.0000064
300.0000018
300.0000005
300.0000001
300
300
300
300
300
300
300
300
300
300
300
300
300
300
300
499.4372541
504.4728355
518.7306238
550.5535725
617.0515142
754.9301867
1046.764657
1685.737528
1726.880236
1255.795942
920.6951587
689.2174845
534.9608647
436.2477052
375.7753456
340.3801751
320.6074294
310.0699557
304.7123596
302.1125847
300.9077957
300.3741543
300.1480246
300.0562598
300.0205601
300.0072311
300.0024498
300.0008002
300.0002523
300.0000768
300.0000226
300.0000064
300.0000018
300.0000005
300.0000001
300
300
300
300
300
300
300
300
300
300
300
300
300
300
300
496.7427377
501.5059062
514.9643147
544.8184515
606.5733504
733.405525
992.659657
1597.760717
1630.892597
1197.239512
885.395587
668.3566874
522.9508269
429.5437223
372.1599825
338.5013194
319.668136
309.6187249
304.5041848
302.0203695
300.8685706
300.3581273
300.1417312
300.0538834
300.0196965
300.0069289
300.0023479
300.0007671
300.0002418
300.0000736
300.0000217
300.0000062
300.0000017
300.0000005
300.0000001
300
300
300
300
300
300
300
300
300
300
300
300
300
300
300
491.6430223
495.9446302
508.0610301
534.6908314
589.0237036
698.7196227
916.9051783
1442.24451
1459.681157
1091.490604
821.0792201
630.0998278
500.8179903
417.1434101
365.4535589
335.0082959
317.9187846
308.7771545
304.1154797
301.8480219
300.7952025
300.3281299
300.1299454
300.0494308
300.0180779
300.0063623
300.0021567
300.0007048
300.0002223
300.0000677
300.0000199
300.0000057
300.0000016
300.0000004
300.0000001
300
300
300
300
300
300
300
300
300
300
300
300
300
300
300
484.611152
488.3549586
498.8649077
521.7296257
567.7032557
658.2457252
835.2352246
1246.436185
1246.276614
957.2645956
738.3273513
580.3725119
471.8257884
400.8034362
356.5757225
330.3675645
315.5879618
307.6532579
303.5953961
301.6170652
300.6967577
300.2878361
300.1140997
300.0434398
300.0158985
300.0055988
300.001899
300.0006209
300.0001959
300.0000597
300.0000176
300.000005
300.0000014
300.0000004
300.0000001
300
300
300
300
300
300
300
300
300
300
300
300
300
300
300
476.2008861
479.363408
488.2038106
507.221152
544.753153
616.2273615
755.0974911
1039.237974
1025.355728
814.989517
649.0441614
525.9961984
439.796987
382.6089635
346.6292309
325.1428811
312.953645
306.3790333
303.0042373
301.3539905
300.5844251
300.2417896
300.0959689
300.0365773
300.0133998
300.0047229
300.0016031
300.0005245
300.0001656
300.0000505
300.0000149
300.0000042
300.0000012
300.0000003
300.0000001
300
300
300
300
300
300
300
300
300
300
300
300
300
300
300
466.9669166
469.5770153
476.83509
492.2586924
521.8870165
576.2853828
680.1132726
844.7496293
824.246065
681.7690591
563.6547162
473.1486769
408.2823072
364.5344018
336.6738462
319.8823015
310.2885342
305.0849128
302.40194
301.0852539
300.4694224
300.1945612
300.0773433
300.0295181
300.0108264
300.0038198
300.0012977
300.000425
300.0001343
300.000041
300.0000121
300.0000034
300.000001
300.0000003
300.0000001
300
300
300
300
300
300
300
300
300
300
300
300
300
300
300
457.4085642
459.5310562
465.4096997
477.7470351
500.8097349
542.8476625
619.9460345
678.3404699
658.6728495
568.5729243
489.3492625
426.3164699
379.9599302
348.1118986
327.5499833
315.0278183
307.8154834
303.8786169
301.838427
300.8330446
300.3612124
300.1500248
300.0597464
300.0228379
300.0083877
300.0029629
300.0010077
300.0003303
300.0001044
300.0000319
300.0000094
300.0000027
300.0000007
300.0000002
300.0000001
300
300
300
300
300
300
300
300
300
300
300
300
300
300
300
447.9332555
449.6560732
454.4136103
464.2127625
482.1793856
514.7582313
565.0183482
548.887271
533.4651768
479.9304691
429.6245393
387.9188742
356.379044
334.2732026
319.7879492
310.8662424
305.6822674
302.8328039
301.3478348
300.6127048
300.2663979
300.1109041
300.0442563
300.0169467
300.0062337
300.002205
300.0007508
300.0002464
300.000078
300.0000238
300.000007
300.000002
300.0000006
300.0000001
300
300
300
300
300
300
300
300
300
300
300
300
300
300
300
300
438.8382805
440.2647823
444.1790632
452.1024625
466.7404733
491.6568341
512.7510248
455.8117427
445.3552326
415.2325091
384.8252227
358.5086323
338.0216637
323.3612034
313.6047167
307.523765
303.9574118
301.9825229
300.9471402
300.4320505
300.1884086
300.0786367
300.0314495
300.012066
300.0044459
300.001575
300.000537
300.0001764
300.0000559
300.0000171
300.0000051
300.0000014
300.0000004
300.0000001
300
300
300
300
300
300
300
300
300
300
300
300
300
300
300
300
430.3058353
431.5254901
434.8037411
441.3936296
453.348334
469.5134511
467.3392168
393.5423162
387.0646449
370.8339869
353.2212777
337.314639
324.5702656
315.2588733
308.9645171
304.9936878
302.6425345
301.3305476
300.6383965
300.2922806
300.1278589
300.0535101
300.0214512
300.0082471
300.0030443
300.0010802
300.0003689
300.0001213
300.0000385
300.0000118
300.0000035
300.000001
300.0000003
300.0000001
300
300
300
300
300
300
300
300
300
300
300
300
300
300
300
300
422.4229646
423.4978483
426.3131842
431.9824688
441.0849024
447.2596633
430.4360337
354.4311134
350.4855246
341.97636
332.1199248
322.8635351
315.2445582
309.5661799
305.6688966
303.1807984
301.6934863
300.857104
300.4130528
300.1898263
300.0833116
300.0349658
300.014052
300.0054142
300.0020025
300.0007118
300.0002434
300.0000802
300.0000255
300.0000078
300.0000023
300.0000007
300.0000002
300
300
300
300
300
300
300
300
300
300
300
300
300
300
300
300
300
415.1985638
416.1559607
418.622863
423.288179
428.9772185
426.938673
401.773687
331.0878881
328.5289935
324.0945589
318.7121696
313.4956914
309.1009496
305.7664742
303.445431
301.9468067
301.0427127
300.5304464
300.2567613
300.118451
300.0521592
300.0219549
300.0088458
300.003416
300.001266
300.0004508
300.0001544
300.0000509
300.0000162
300.000005
300.0000015
300.0000004
300.0000001
300
300
300
300
300
300
300
300
300
300
300
300
300
300
300
300
300
408.6032407
409.471216
411.6728093
415.2511417
417.1040988
409.152985
380.0003912
317.6597071
315.8229714
313.4669968
310.5647684
307.6978597
305.2406412
303.3488593
302.0159213
301.1465226
300.617571
300.3157238
300.1534848
300.0710741
300.0314008
300.0132559
300.0053548
300.0020726
300.0007697
300.0002746
300.0000942
300.0000311
300.0000099
300.000003
300.0000009
300.0000003
300.0000001
300
300
300
300
300
300
300
300
300
300
300
300
300
300
300
300
300
402.6002309
403.3995828
405.2145635
407.4435074
405.7814124
393.7529644
363.3873521
310.1096144
308.6831512
307.3752036
305.8084019
304.258634
302.9192231
301.8780499
301.1376612
300.6507322
300.3523153
300.1809403
300.0883196
300.041046
300.0181927
300.0077021
300.0031193
300.0012101
300.0004503
300.000161
300.0000553
300.0000183
300.0000058
300.0000018
300.0000005
300.0000002
300
300
300
300
300
300
300
300
300
300
300
300
300
300
300
300
300
300
397.1581463
397.8561853
399.3296588
399.6866904
395.0221934
380.3044025
350.3815869
305.9074606
304.7619174
303.989683
303.1291896
302.2960717
301.5788979
301.0200298
300.6206947
300.356623
300.1939036
300.0999787
300.0489787
300.0228381
300.010153
300.0043102
300.0017499
300.0006804
300.0002537
300.0000909
300.0000313
300.0000104
300.0000033
300.000001
300.0000003
300.0000001
300
300
300
300
300
300
300
300
300
300
300
300
300
300
300
300
300
300
392.2531642
392.8756823
393.5384646
391.9043264
384.7818159
368.4282731
339.9644108
303.5692778
302.6442159
302.1559055
301.6666054
301.2147153
300.8335057
300.5387107
300.3284159
300.18918
300.1031602
300.0533498
300.0262127
300.0122572
300.0054636
300.0023252
300.0009462
300.0003687
300.0001378
300.0000494
300.000017
300.0000057
300.0000018
300.0000006
300.0000002
300
300
300
300
300
300
300
300
300
300
300
300
300
300
300
300
300
300
300
387.8379136
388.1693436
387.6358121
384.1004083
375.0703994
357.936292
331.7892953
302.2539676
301.5115662
301.1820022
300.8889424
300.6370008
300.4328142
300.2782891
300.169278
300.0974757
300.0531957
300.0275509
300.0135619
300.0063545
300.0028385
300.0012105
300.0004936
300.0001927
300.0000721
300.0000259
300.000009
300.000003
300.000001
300.0000003
300.0000001
300
300
300
300
300
300
300
300
300
300
300
300
300
300
300
300
300
300
300
383.6682346
383.3987041
381.537162
376.3355693
365.9277086
348.7104781
325.5381086
301.5077446
300.9074106
300.6709579
300.4835107
300.3360864
300.2236746
300.1418818
300.0855757
300.0490335
300.0266908
300.0138104
300.0067989
300.0031882
300.0014258
300.0006089
300.0002487
300.0000972
300.0000365
300.0000131
300.0000045
300.0000015
300.0000005
300.0000001
300
300
300
300
300
300
300
300
300
300
300
300
300
300
300
300
300
300
300
300
379.3883587
378.374057
375.2288749
368.6457484
357.3186259
340.583091
320.8363453
301.0719998
300.5806318
300.4022442
300.2739195
300.1819329
300.116963
300.0723433
300.0428659
300.0242673
300.0131064
300.006749
300.0033136
300.0015519
300.0006939
300.0002965
300.0001212
300.0000474
300.0000178
300.0000064
300.0000022
300.0000007
300.0000002
300.0000001
300
300
300
300
300
300
300
300
300
300
300
300
300
300
300
300
300
300
300
300
374.757255
372.9854787
368.6623905
360.9201994
348.9792069
333.2245818
316.9354108
300.7951343
300.3950498
300.2568446
300.1642758
300.1030589
300.0631131
300.0375372
300.0215822
300.0119496
300.0063526
300.003236
300.0015775
300.0007356
300.000328
300.00014
300.0000572
300.0000224
300.0000084
300.000003
300.0000011
300.0000004
300.0000001
300
300
300
300
300
300
300
300
300
300
300
300
300
300
300
300
300
300
300
300
300
369.55677
367.0558702
361.6369144
352.8557949
340.5595548
326.6099655
313.4847842
300.5985331
300.279626
300.1726459
300.1042733
300.0616638
300.0356778
300.0201624
300.0111016
300.0059371
300.0030737
300.0015356
300.0007384
300.0003411
300.0001512
300.0000643
300.0000262
300.0000102
300.0000038
300.0000014
300.0000005
300.0000002
300.0000001
300
300
300
300
300
300
300
300
300
300
300
300
300
300
300
300
300
300
300
300
300
363.3589357
360.1429888
353.6630152
344.020354
332.0956904
320.6075584
310.3264188
300.4431214
300.1987425
300.1183212
300.0683894
300.0384515
300.0210667
300.0112678
300.0058907
300.0030097
300.0015003
300.0007277
300.0003422
300.0001556
300.0000682
300.0000288
300.0000117
300.0000046
300.0000017
300.0000006
300.0000002
300.0000001
300
300
300
300
300
300
300
300
300
300
300
300
300
300
300
300
300
300
300
300
300
300
355.1287857
351.1999528
343.8161831
334.0051881
323.7417426
314.9422692
307.3663936
300.3093013
300.1348911
300.0784239
300.0440092
300.0238577
300.0125189
300.0063806
300.0031717
300.001543
300.0007357
300.0003437
300.0001568
300.0000697
300.0000301
300.0000125
300.000005
300.000002
300.0000007
300.0000003
300.0000001
300
300
300
300
300
300
300
300
300
300
300
300
300
300
300
300
300
300
300
300
300
300
300
342.4149766
337.9494206
330.5311166
322.3110377
315.1560514
309.4082133
304.5670804
300.1873692
300.079325
300.0453217
300.0249599
300.0132246
300.0067456
300.0033235
300.0015897
300.0007424
300.00034
300.000153
300.0000677
300.0000293
300.0000124
300.0000051
300.000002
300.0000008
300.0000003
300.0000001
300
300
300
300
300
300
300
300
300
300
300
300
300
300
300
300
300
300
300
300
300
300
300
300
319.9954134
316.4645245
311.8787333
308.2144877
305.5388653
303.4376091
301.6684335
300.0663107
300.0266173
300.0149461
300.0081349
300.0042597
300.0021427
300.0010378
300.0004864
300.000222
300.0000993
300.0000437
300.0000189
300.000008
300.0000034
300.0000014
300.0000005
300.0000002
300.0000001
300
300
300
300
300
300
300
300
300
300
300
300
300
300
300
300
300
300
300
300
300
300
300
300
300
)
;

boundaryField
{
    lowerWall
    {
        type            fixedValue;
        value           uniform 300;
    }
    atmosphere
    {
        type            zeroGradient;
    }
    rightWall
    {
        type            empty;
    }
    leftWall
    {
        type            empty;
    }
    frontAndBack
    {
        type            fixedValue;
        value           uniform 300;
    }
}


// ************************************************************************* //
