/*--------------------------------*- C++ -*----------------------------------*\
  =========                 |
  \\      /  F ield         | OpenFOAM: The Open Source CFD Toolbox
   \\    /   O peration     | Website:  https://openfoam.org
    \\  /    A nd           | Version:  6
     \\/     M anipulation  |
\*---------------------------------------------------------------------------*/
FoamFile
{
    version     2.0;
    format      ascii;
    class       volVectorField;
    location    "0.11";
    object      U;
}
// * * * * * * * * * * * * * * * * * * * * * * * * * * * * * * * * * * * * * //

dimensions      [0 1 -1 0 0 0 0];

internalField   nonuniform List<vector> 
2500
(
(0 -1.220075156 -0.675385487)
(0 0.06133726113 -0.3242250123)
(0 0.2271626932 -0.120525878)
(0 0.3093668962 -0.03493095107)
(0 0.2887798564 0.008805451422)
(0 0.2188969623 0.04541204233)
(0 0.03394662404 0.0663872064)
(0 -0.0009610240655 0.003604690042)
(0 -4.085719125e-14 1.960582813e-17)
(0 -8.126614177e-14 -3.501523419e-16)
(0 -8.012383697e-14 -6.909544477e-16)
(0 -7.842733348e-14 -1.005643126e-15)
(0 -7.613584557e-14 -1.285524055e-15)
(0 -7.332625436e-14 -1.523717298e-15)
(0 -7.008620381e-14 -1.715979617e-15)
(0 -6.650910548e-14 -1.860786854e-15)
(0 -6.268896185e-14 -1.959068636e-15)
(0 -5.871591563e-14 -2.013750087e-15)
(0 -5.467280044e-14 -2.02920968e-15)
(0 -5.063277828e-14 -2.010735387e-15)
(0 -4.665801012e-14 -1.96403573e-15)
(0 -4.279921742e-14 -1.894838185e-15)
(0 -3.909594712e-14 -1.808587204e-15)
(0 -3.557734349e-14 -1.710239334e-15)
(0 -3.226324426e-14 -1.6041437e-15)
(0 -2.916544647e-14 -1.493991612e-15)
(0 -2.628902102e-14 -1.382818026e-15)
(0 -2.363358846e-14 -1.273038831e-15)
(0 -2.119449774e-14 -1.166510351e-15)
(0 -1.896387444e-14 -1.064600325e-15)
(0 -1.693152351e-14 -9.682624073e-16)
(0 -1.508568472e-14 -8.781087479e-16)
(0 -1.341364853e-14 -7.944771778e-16)
(0 -1.190224469e-14 -7.174911085e-16)
(0 -1.053821918e-14 -6.471113627e-16)
(0 -9.308515568e-15 -5.831799227e-16)
(0 -8.200476491e-15 -5.254560667e-16)
(0 -7.201979718e-15 -4.736456404e-16)
(0 -6.301521689e-15 -4.274243353e-16)
(0 -5.488259588e-15 -3.864558721e-16)
(0 -4.752021307e-15 -3.504059482e-16)
(0 -4.08329096e-15 -3.189527354e-16)
(0 -3.473176167e-15 -2.917946247e-16)
(0 -2.913362003e-15 -2.686558192e-16)
(0 -2.396055399e-15 -2.492902992e-16)
(0 -1.913922756e-15 -2.334846394e-16)
(0 -1.460022541e-15 -2.210602305e-16)
(0 -1.027732991e-15 -2.118759582e-16)
(0 -6.10670892e-16 -2.05834537e-16)
(0 -2.025804897e-16 -2.029055918e-16)
(0 -1.131288102 -1.107992705)
(0 -0.519985466 -0.7029251727)
(0 -0.1595130091 -0.2589380216)
(0 0.0294825092 -0.02836728832)
(0 0.05487280147 0.06235487705)
(0 0.07062508942 0.1317255484)
(0 -0.01320288555 0.1603340487)
(0 -0.0001932981999 0.006709044676)
(0 -4.121359418e-14 3.154700496e-17)
(0 -8.196945767e-14 -1.068432136e-15)
(0 -8.077932775e-14 -2.098937882e-15)
(0 -7.902190309e-14 -3.051773449e-15)
(0 -7.665391974e-14 -3.898301992e-15)
(0 -7.375670992e-14 -4.617134243e-15)
(0 -7.042327337e-14 -5.195456279e-15)
(0 -6.67521945e-14 -5.628960105e-15)
(0 -6.284192508e-14 -5.920892324e-15)
(0 -5.878605667e-14 -6.080570033e-15)
(0 -5.466978574e-14 -6.121672197e-15)
(0 -5.056760432e-14 -6.060551506e-15)
(0 -4.654211292e-14 -5.914735042e-15)
(0 -4.26437689e-14 -5.701707217e-15)
(0 -3.891134826e-14 -5.438006311e-15)
(0 -3.537289998e-14 -5.138621552e-15)
(0 -3.204699654e-14 -4.816650788e-15)
(0 -2.89441208e-14 -4.483166555e-15)
(0 -2.606806824e-14 -4.147236494e-15)
(0 -2.341728079e-14 -3.816048817e-15)
(0 -2.098605923e-14 -3.495101559e-15)
(0 -1.87656265e-14 -3.188423444e-15)
(0 -1.674503193e-14 -2.898802878e-15)
(0 -1.491189949e-14 -2.62800913e-15)
(0 -1.32530309e-14 -2.376995793e-15)
(0 -1.175487888e-14 -2.146081272e-15)
(0 -1.040390799e-14 -1.935104281e-15)
(0 -9.186860272e-15 -1.743554628e-15)
(0 -8.090942208e-15 -1.57068087e-15)
(0 -7.103947987e-15 -1.415577262e-15)
(0 -6.21433192e-15 -1.277252692e-15)
(0 -5.411241201e-15 -1.154684371e-15)
(0 -4.68451817e-15 -1.04685889e-15)
(0 -4.024679636e-15 -9.528030204e-16)
(0 -3.42287925e-15 -8.716063391e-16)
(0 -2.870857678e-15 -8.024374895e-16)
(0 -2.360884219e-15 -7.445555953e-16)
(0 -1.885692688e-15 -6.97318154e-16)
(0 -1.43841386e-15 -6.601866483e-16)
(0 -1.012507297e-15 -6.327313436e-16)
(0 -6.017005257e-16 -6.146378411e-16)
(0 -1.996515446e-16 -6.05722072e-16)
(0 -1.150944154 -1.361213657)
(0 -0.8528037333 -1.131973802)
(0 -0.4146715978 -0.6062109882)
(0 -0.1286291901 -0.166328083)
(0 -0.05997296754 0.02886681158)
(0 -0.04381825627 0.1370304201)
(0 -0.02513111673 0.1606164522)
(0 0.0002962515571 -0.001157938267)
(0 -4.192647738e-14 -1.006451329e-17)
(0 -8.338029221e-14 -1.831323092e-15)
(0 -8.210717828e-14 -3.584476866e-15)
(0 -8.022669759e-14 -5.204208717e-15)
(0 -7.770120636e-14 -6.638774548e-15)
(0 -7.462340865e-14 -7.851066866e-15)
(0 -7.109802967e-14 -8.819768105e-15)
(0 -6.723454152e-14 -9.538735975e-15)
(0 -6.314057178e-14 -1.00150166e-14)
(0 -5.89166955e-14 -1.026602643e-14)
(0 -5.465278191e-14 -1.031643223e-14)
(0 -5.042584112e-14 -1.019515024e-14)
(0 -4.629916583e-14 -9.932743016e-15)
(0 -4.232248869e-14 -9.559355411e-15)
(0 -3.853286145e-14 -9.103222653e-15)
(0 -3.495598796e-14 -8.589709224e-15)
(0 -3.160778927e-14 -8.040795899e-15)
(0 -2.849603218e-14 -7.474916259e-15)
(0 -2.562190329e-14 -6.907045366e-15)
(0 -2.298145353e-14 -6.348954658e-15)
(0 -2.056687236e-14 -5.809563129e-15)
(0 -1.836757576e-14 -5.295331569e-15)
(0 -1.637110919e-14 -4.81066201e-15)
(0 -1.456387764e-14 -4.358277392e-15)
(0 -1.293172068e-14 -3.939566603e-15)
(0 -1.146035318e-14 -3.554887527e-15)
(0 -1.013569254e-14 -3.203825992e-15)
(0 -8.944092156e-15 -2.88541195e-15)
(0 -7.872499125e-15 -2.598296284e-15)
(0 -6.90855154e-15 -2.340892707e-15)
(0 -6.040628798e-15 -2.111489599e-15)
(0 -5.257865787e-15 -1.908336596e-15)
(0 -4.550139957e-15 -1.729710374e-15)
(0 -3.908038409e-15 -1.573963663e-15)
(0 -3.322810636e-15 -1.439560965e-15)
(0 -2.786311259e-15 -1.325103943e-15)
(0 -2.290936063e-15 -1.229348963e-15)
(0 -1.829553809e-15 -1.15121883e-15)
(0 -1.395435731e-15 -1.089810306e-15)
(0 -9.821841835e-16 -1.044398451e-15)
(0 -5.836616205e-16 -1.014437289e-15)
(0 -1.936647206e-16 -9.99550294e-16)
(0 -1.088147595 -1.424988958)
(0 -1.077727967 -1.44475862)
(0 -0.67437881 -0.9868454667)
(0 -0.3025974193 -0.4130944302)
(0 -0.06042694178 0.0007170099406)
(0 -0.08033645877 0.09499987533)
(0 -0.01063036099 0.1054324563)
(0 0.0002918892733 -0.006364044741)
(0 -4.304203685e-14 -3.782180332e-17)
(0 -8.555052378e-14 -2.663581024e-15)
(0 -8.415221338e-14 -5.203326873e-15)
(0 -8.207620077e-14 -7.541724637e-15)
(0 -7.930077789e-14 -9.601426303e-15)
(0 -7.593770348e-14 -1.132849614e-14)
(0 -7.211094248e-14 -1.269372568e-14)
(0 -6.794744299e-14 -1.369112248e-14)
(0 -6.356921554e-14 -1.433434763e-14)
(0 -5.90874723e-14 -1.465203486e-14)
(0 -5.459890955e-14 -1.468283813e-14)
(0 -5.018391512e-14 -1.447083979e-14)
(0 -4.590631809e-14 -1.406170164e-14)
(0 -4.181424853e-14 -1.349972113e-14)
(0 -3.794170208e-14 -1.282579198e-14)
(0 -3.431047323e-14 -1.207616739e-14)
(0 -3.093220358e-14 -1.128187503e-14)
(0 -2.781037026e-14 -1.046862128e-14)
(0 -2.494210664e-14 -9.657034088e-15)
(0 -2.231979855e-14 -8.8631172e-15)
(0 -1.993243614e-14 -8.098816522e-15)
(0 -1.776672538e-14 -7.372625596e-15)
(0 -1.580797775e-14 -6.690180481e-15)
(0 -1.404080409e-14 -6.054812794e-15)
(0 -1.244964103e-14 -5.468043678e-15)
(0 -1.101913827e-14 -4.930011545e-15)
(0 -9.734432417e-15 -4.439833135e-15)
(0 -8.581330564e-15 -3.995901721e-15)
(0 -7.546422965e-15 -3.596128589e-15)
(0 -6.617141302e-15 -3.23813504e-15)
(0 -5.78177581e-15 -2.919402349e-15)
(0 -5.029461975e-15 -2.637386759e-15)
(0 -4.350145237e-15 -2.389606005e-15)
(0 -3.734530228e-15 -2.173703046e-15)
(0 -3.17401953e-15 -1.987491903e-15)
(0 -2.660645675e-15 -1.828989703e-15)
(0 -2.186999106e-15 -1.696438317e-15)
(0 -1.746154031e-15 -1.588318324e-15)
(0 -1.331593482e-15 -1.50335743e-15)
(0 -9.371342795e-16 -1.440534841e-15)
(0 -5.568523682e-16 -1.399082468e-15)
(0 -1.8476455e-16 -1.378483697e-15)
(0 -0.9229225725 -1.328692655)
(0 -1.167843315 -1.60507645)
(0 -0.8949347806 -1.35545556)
(0 -0.5181920115 -0.7886485749)
(0 -0.121887713 -0.1706364842)
(0 -0.03933932028 0.06384679712)
(0 -0.00716265345 0.05817656074)
(0 0.0001891160056 -0.007805707922)
(0 -4.458725991e-14 -4.719813717e-17)
(0 -8.856839626e-14 -3.601046703e-15)
(0 -8.698532189e-14 -7.023451101e-15)
(0 -8.462479702e-14 -1.01578187e-14)
(0 -8.148797787e-14 -1.289658498e-14)
(0 -7.771570803e-14 -1.516764807e-14)
(0 -7.346065601e-14 -1.693541585e-14)
(0 -6.887516347e-14 -1.819760357e-14)
(0 -6.410148416e-14 -1.897916401e-14)
(0 -5.9265186e-14 -1.932489734e-14)
(0 -5.447158684e-14 -1.929203472e-14)
(0 -4.980470462e-14 -1.894367267e-14)
(0 -4.532804718e-14 -1.834351608e-14)
(0 -4.108657904e-14 -1.755205491e-14)
(0 -3.710930771e-14 -1.662407886e-14)
(0 -3.341207101e-14 -1.560731569e-14)
(0 -3.000024316e-14 -1.454193646e-14)
(0 -2.687119124e-14 -1.34606782e-14)
(0 -2.40163992e-14 -1.23893679e-14)
(0 -2.142323596e-14 -1.13476757e-14)
(0 -1.907638076e-14 -1.034996917e-14)
(0 -1.695893972e-14 -9.406179872e-15)
(0 -1.505329639e-14 -8.522624943e-15)
(0 -1.334174083e-14 -7.702750738e-15)
(0 -1.180691943e-14 -6.947782925e-15)
(0 -1.043214264e-14 -6.257279353e-15)
(0 -9.201582712e-15 -5.629589452e-15)
(0 -8.100387609e-15 -5.062228291e-15)
(0 -7.114732443e-15 -4.552175518e-15)
(0 -6.231825301e-15 -4.09611004e-15)
(0 -5.439880516e-15 -3.690590987e-15)
(0 -4.728069442e-15 -3.332194664e-15)
(0 -4.086456243e-15 -3.017616106e-15)
(0 -3.505924307e-15 -2.743742643e-15)
(0 -2.978097293e-15 -2.507705754e-15)
(0 -2.495257673e-15 -2.306916379e-15)
(0 -2.050264684e-15 -2.139087914e-15)
(0 -1.636472922e-15 -2.002250293e-15)
(0 -1.247652247e-15 -1.894757776e-15)
(0 -8.779092216e-16 -1.815292517e-15)
(0 -5.216104766e-16 -1.762865496e-15)
(0 -1.730659495e-16 -1.736816503e-15)
(0 -0.6611262923 -1.097122672)
(0 -1.105562059 -1.571746919)
(0 -1.025498297 -1.610485963)
(0 -0.73706708 -1.199731799)
(0 -0.2893701591 -0.5106210769)
(0 0.009303823098 0.01455188518)
(0 -0.008348018272 0.05340876723)
(0 9.021052283e-05 -0.009855155511)
(0 -4.662454913e-14 -5.71482548e-17)
(0 -9.255524105e-14 -4.68975194e-15)
(0 -9.070898537e-14 -9.131510307e-15)
(0 -8.794933465e-14 -1.316933702e-14)
(0 -8.431060726e-14 -1.665926439e-14)
(0 -7.997653435e-14 -1.950992882e-14)
(0 -7.514089797e-14 -2.168254988e-14)
(0 -6.999119115e-14 -2.318461261e-14)
(0 -6.469650931e-14 -2.405974522e-14)
(0 -5.9400343e-14 -2.437632628e-14)
(0 -5.421768487e-14 -2.421672751e-14)
(0 -4.923539647e-14 -2.366831596e-14)
(0 -4.451470033e-14 -2.281666339e-14)
(0 -4.009481132e-14 -2.174093865e-14)
(0 -3.599696286e-14 -2.051119042e-14)
(0 -3.222833083e-14 -1.918711699e-14)
(0 -2.878556608e-14 -1.781791122e-14)
(0 -2.565780171e-14 -1.644281766e-14)
(0 -2.282910415e-14 -1.509210987e-14)
(0 -2.028039982e-14 -1.378827044e-14)
(0 -1.799094031e-14 -1.254722237e-14)
(0 -1.593938115e-14 -1.137951383e-14)
(0 -1.410454862e-14 -1.029139947e-14)
(0 -1.246596207e-14 -9.285790304e-15)
(0 -1.100416964e-14 -8.363063634e-15)
(0 -9.700944794e-15 -7.521737311e-15)
(0 -8.539381355e-15 -6.759019345e-15)
(0 -7.50391663e-15 -6.071247605e-15)
(0 -6.580304714e-15 -5.454235369e-15)
(0 -5.755556771e-15 -4.903538136e-15)
(0 -5.017860434e-15 -4.414655897e-15)
(0 -4.356487094e-15 -3.983183431e-15)
(0 -3.761693216e-15 -3.604919468e-15)
(0 -3.224619877e-15 -3.275943838e-15)
(0 -2.737193266e-15 -2.992670142e-15)
(0 -2.292027835e-15 -2.751880112e-15)
(0 -1.882333021e-15 -2.55074459e-15)
(0 -1.501823893e-15 -2.386835052e-15)
(0 -1.144635705e-15 -2.258128745e-15)
(0 -8.052419991e-16 -2.163009823e-15)
(0 -4.783763544e-16 -2.100268349e-15)
(0 -1.587155569e-16 -2.069098724e-15)
(0 -0.3459906138 -0.7805203476)
(0 -0.8995600549 -1.353778408)
(0 -1.031156547 -1.693136546)
(0 -0.8972233804 -1.546566342)
(0 -0.4921689076 -0.9238747794)
(0 -0.07094895915 -0.1769221306)
(0 0.0006411497254 0.05734983323)
(0 -0.0003086070593 -0.01335006086)
(0 -4.924854389e-14 -7.685509508e-17)
(0 -9.768087154e-14 -5.994070342e-15)
(0 -9.546490697e-14 -1.16433688e-14)
(0 -9.215255111e-14 -1.672849221e-14)
(0 -8.782856967e-14 -2.106094414e-14)
(0 -8.273899351e-14 -2.453002183e-14)
(0 -7.71353398e-14 -2.710006168e-14)
(0 -7.125235882e-14 -2.879842814e-14)
(0 -6.529319783e-14 -2.969880809e-14)
(0 -5.942216829e-14 -2.990391016e-14)
(0 -5.376357651e-14 -2.953024212e-14)
(0 -4.840464051e-14 -2.869623235e-14)
(0 -4.340066987e-14 -2.751392858e-14)
(0 -3.878110607e-14 -2.608389772e-14)
(0 -3.455548606e-14 -2.449267984e-14)
(0 -3.071879181e-14 -2.281210051e-14)
(0 -2.725594383e-14 -2.109981879e-14)
(0 -2.414538988e-14 -1.940061048e-14)
(0 -2.136185198e-14 -1.774801642e-14)
(0 -1.887834847e-14 -1.616610089e-14)
(0 -1.666762414e-14 -1.467115771e-14)
(0 -1.470311682e-14 -1.327327049e-14)
(0 -1.295957287e-14 -1.197768167e-14)
(0 -1.1413405e-14 -1.078595686e-14)
(0 -1.004286643e-14 -9.696950741e-15)
(0 -8.828098349e-15 -8.70759146e-15)
(0 -7.751093007e-15 -7.813505834e-15)
(0 -6.795603633e-15 -7.009508903e-15)
(0 -5.947022975e-15 -6.289980692e-15)
(0 -5.192245829e-15 -5.649150964e-15)
(0 -4.519525811e-15 -5.081310214e-15)
(0 -3.918333013e-15 -4.580962486e-15)
(0 -3.379216651e-15 -4.142933025e-15)
(0 -2.893674981e-15 -3.762441452e-15)
(0 -2.454033567e-15 -3.435149108e-15)
(0 -2.053332121e-15 -3.157187521e-15)
(0 -1.685219624e-15 -2.925173435e-15)
(0 -1.343857077e-15 -2.736214721e-15)
(0 -1.023827018e-15 -2.587910469e-15)
(0 -7.200488256e-16 -2.478347824e-15)
(0 -4.276993773e-16 -2.406097497e-15)
(0 -1.418963242e-16 -2.370209424e-15)
(0 -0.05006618507 -0.4423273859)
(0 -0.592354934 -0.9956820357)
(0 -0.9072598502 -1.578864243)
(0 -0.9621917598 -1.756860227)
(0 -0.6749426381 -1.339419992)
(0 -0.2234321679 -0.5164376479)
(0 0.00993311641 0.01909513473)
(0 -0.0008127771128 -0.01794157786)
(0 -5.259031908e-14 -1.156762116e-16)
(0 -1.041773284e-13 -7.606501622e-15)
(0 -1.014434072e-13 -1.471920523e-14)
(0 -9.736690998e-14 -2.103993075e-14)
(0 -9.211213688e-14 -2.632562334e-14)
(0 -8.601565189e-14 -3.044883784e-14)
(0 -7.940930428e-14 -3.338901542e-14)
(0 -7.258993756e-14 -3.521008517e-14)
(0 -6.580199133e-14 -3.603307989e-14)
(0 -5.923177704e-14 -3.601025457e-14)
(0 -5.301000707e-14 -3.530413043e-14)
(0 -4.721908293e-14 -3.407250024e-14)
(0 -4.19023657e-14 -3.245899108e-14)
(0 -3.707356258e-14 -3.058811753e-14)
(0 -3.272516565e-14 -2.85636017e-14)
(0 -2.883546977e-14 -2.6468851e-14)
(0 -2.537407605e-14 -2.43687093e-14)
(0 -2.230599934e-14 -2.231183665e-14)
(0 -1.959459455e-14 -2.033328352e-14)
(0 -1.720354111e-14 -1.845699025e-14)
(0 -1.509810992e-14 -1.669806151e-14)
(0 -1.324590512e-14 -1.506474739e-14)
(0 -1.161723499e-14 -1.356011366e-14)
(0 -1.018523114e-14 -1.218341462e-14)
(0 -8.925804242e-15 -1.093119777e-14)
(0 -7.817499886e-15 -9.79817627e-15)
(0 -6.841298798e-15 -8.777906061e-15)
(0 -5.980391489e-15 -7.863302492e-15)
(0 -5.219946775e-15 -7.047027491e-15)
(0 -4.546886292e-15 -6.321774009e-15)
(0 -3.949671955e-15 -5.680470163e-15)
(0 -3.418109905e-15 -5.116421562e-15)
(0 -2.943172182e-15 -4.623406747e-15)
(0 -2.51683596e-15 -4.195737742e-15)
(0 -2.131939335e-15 -3.828295149e-15)
(0 -1.782052162e-15 -3.516545227e-15)
(0 -1.461360221e-15 -3.256544703e-15)
(0 -1.164560927e-15 -3.044937734e-15)
(0 -8.867688084e-16 -2.878948412e-15)
(0 -6.234290268e-16 -2.75637135e-15)
(0 -3.702379545e-16 -2.675562246e-15)
(0 -1.228274841e-16 -2.635429809e-15)
(0 0.139245696 -0.1483074971)
(0 -0.256556912 -0.5805189802)
(0 -0.6791166152 -1.287481196)
(0 -0.9211725491 -1.78712167)
(0 -0.8031457829 -1.682283302)
(0 -0.3872582694 -0.9209593761)
(0 0.008073881672 -0.06475948302)
(0 -0.0005380764185 -0.01986139632)
(0 -5.683231744e-14 -1.552745235e-16)
(0 -1.123661596e-13 -9.662543574e-15)
(0 -1.088983361e-13 -1.85865614e-14)
(0 -1.037589692e-13 -2.638582505e-14)
(0 -9.723747676e-14 -3.275224679e-14)
(0 -8.980238559e-14 -3.755026867e-14)
(0 -8.189658713e-14 -4.079679161e-14)
(0 -7.389642329e-14 -4.261966116e-14)
(0 -6.609336723e-14 -4.321312038e-14)
(0 -5.869321883e-14 -4.279992144e-14)
(0 -5.182582218e-14 -4.160359563e-14)
(0 -4.555950116e-14 -3.983074271e-14)
(0 -3.991628716e-14 -3.766152202e-14)
(0 -3.488571669e-14 -3.524608134e-14)
(0 -3.043621952e-14 -3.270485138e-14)
(0 -2.652389942e-14 -3.013107359e-14)
(0 -2.309892947e-14 -2.759439902e-14)
(0 -2.01099641e-14 -2.514479904e-14)
(0 -1.750700558e-14 -2.281633518e-14)
(0 -1.524312646e-14 -2.063054957e-14)
(0 -1.327538129e-14 -1.859937685e-14)
(0 -1.156516897e-14 -1.672756321e-14)
(0 -1.007824009e-14 -1.501462476e-14)
(0 -8.784489102e-15 -1.34563996e-14)
(0 -7.657628087e-15 -1.204625549e-14)
(0 -6.674806642e-15 -1.077601326e-14)
(0 -5.816219229e-15 -9.636641185e-15)
(0 -5.064725063e-15 -8.618767627e-15)
(0 -4.405494492e-15 -7.713051866e-15)
(0 -3.825688502e-15 -6.9104458e-15)
(0 -3.314173364e-15 -6.202372777e-15)
(0 -2.861269598e-15 -5.580844456e-15)
(0 -2.458532831e-15 -5.038532089e-15)
(0 -2.098563382e-15 -4.568804963e-15)
(0 -1.774841052e-15 -4.165745834e-15)
(0 -1.481581676e-15 -3.824150866e-15)
(0 -1.213612131e-15 -3.53951978e-15)
(0 -9.662607853e-16 -3.308040508e-15)
(0 -7.352606335e-16 -3.126571546e-15)
(0 -5.166626602e-16 -2.992624405e-15)
(0 -3.067578364e-16 -2.904347847e-15)
(0 -1.017638863e-16 -2.860515165e-15)
(0 0.1805664902 -0.02957540427)
(0 0.01498304167 -0.2223284171)
(0 -0.3983592255 -0.8828437027)
(0 -0.7885980905 -1.62998265)
(0 -0.8629123757 -1.895892991)
(0 -0.538239036 -1.345590516)
(0 -0.03285734712 -0.3114463956)
(0 0.001431625886 -0.01682905006)
(0 -6.222407027e-14 -3.294992316e-16)
(0 -1.227202226e-13 -1.23882366e-14)
(0 -1.181666887e-13 -2.357775024e-14)
(0 -1.115325954e-13 -3.316369961e-14)
(0 -1.032765805e-13 -4.074650863e-14)
(0 -9.406019671e-14 -4.620264403e-14)
(0 -8.447869677e-14 -4.962788921e-14)
(0 -7.500626633e-14 -5.12585048e-14)
(0 -6.598225161e-14 -5.139981499e-14)
(0 -5.762225229e-14 -5.037279973e-14)
(0 -5.004082834e-14 -4.84797201e-14)
(0 -4.327700932e-14 -4.598550301e-14)
(0 -3.731770434e-14 -4.311042162e-14)
(0 -3.211689194e-14 -4.002997049e-14)
(0 -2.76101579e-14 -3.687876699e-14)
(0 -2.372501741e-14 -3.375629155e-14)
(0 -2.03878015e-14 -3.07330939e-14)
(0 -1.75279355e-14 -2.785668811e-14)
(0 -1.508034509e-14 -2.515675686e-14)
(0 -1.298658278e-14 -2.264953219e-14)
(0 -1.119512356e-14 -2.034135951e-14)
(0 -9.661153023e-15 -1.823152249e-14)
(0 -8.346071379e-15 -1.631443515e-14)
(0 -7.21686187e-15 -1.458131155e-14)
(0 -6.245417896e-15 -1.302141586e-14)
(0 -5.407885581e-15 -1.162298206e-14)
(0 -4.684053166e-15 -1.037387791e-14)
(0 -4.05680217e-15 -9.262073773e-15)
(0 -3.511624949e-15 -8.275964464e-15)
(0 -3.036207202e-15 -7.404581883e-15)
(0 -2.62007061e-15 -6.637727665e-15)
(0 -2.254269218e-15 -5.966048181e-15)
(0 -1.931132689e-15 -5.381068898e-15)
(0 -1.644049705e-15 -4.875200895e-15)
(0 -1.387285238e-15 -4.441729113e-15)
(0 -1.155826109e-15 -4.074789452e-15)
(0 -9.452498627e-16 -3.769339961e-15)
(0 -7.516126931e-16 -3.521129972e-15)
(0 -5.713527054e-16 -3.32666994e-15)
(0 -4.012053272e-16 -3.183204016e-15)
(0 -2.381287148e-16 -3.088686753e-15)
(0 -7.899480233e-17 -3.041764917e-15)
(0 0.1730090289 0.0052833647)
(0 0.1522990944 -0.01575035425)
(0 -0.1243719739 -0.45976287)
(0 -0.5905128239 -1.313289904)
(0 -0.8529602393 -1.942762778)
(0 -0.6744463902 -1.727567183)
(0 -0.1419506594 -0.6921248448)
(0 0.004653565467 -0.02603941329)
(0 -6.89775095e-14 -1.018355689e-15)
(0 -1.357662119e-13 -1.607800587e-14)
(0 -1.296737991e-13 -3.017086931e-14)
(0 -1.209277276e-13 -4.194333604e-14)
(0 -1.102764212e-13 -5.086634843e-14)
(0 -9.868376617e-14 -5.688520731e-14)
(0 -8.69524479e-14 -6.025327078e-14)
(0 -7.566834907e-14 -6.13865752e-14)
(0 -6.520766216e-14 -6.075492832e-14)
(0 -5.577312393e-14 -5.881192887e-14)
(0 -4.743852546e-14 -5.595720518e-14)
(0 -4.019020268e-14 -5.252135151e-14)
(0 -3.396075464e-14 -4.876489541e-14)
(0 -2.865406206e-14 -4.488478781e-14)
(0 -2.416254058e-14 -4.102409937e-14)
(0 -2.037822633e-14 -3.728234707e-14)
(0 -1.719932603e-14 -3.37250863e-14)
(0 -1.453362705e-14 -3.039217011e-14)
(0 -1.229984967e-14 -2.730452161e-14)
(0 -1.042772911e-14 -2.446949838e-14)
(0 -8.857371588e-15 -2.18850311e-14)
(0 -7.538244615e-15 -1.954274835e-14)
(0 -6.42802915e-15 -1.743029181e-14)
(0 -5.491469809e-15 -1.5533001e-14)
(0 -4.699298593e-15 -1.383511643e-14)
(0 -4.027268692e-15 -1.232062095e-14)
(0 -3.455310946e-15 -1.097381276e-14)
(0 -2.966811619e-15 -9.779682182e-15)
(0 -2.548002601e-15 -8.724146759e-15)
(0 -2.187451703e-15 -7.794185655e-15)
(0 -1.875639662e-15 -6.977903701e-15)
(0 -1.60461083e-15 -6.264547555e-15)
(0 -1.367685545e-15 -5.644490334e-15)
(0 -1.159223597e-15 -5.109196627e-15)
(0 -9.744296088e-16 -4.651176436e-15)
(0 -8.09192524e-16 -4.263934183e-15)
(0 -6.599526512e-16 -3.941917108e-15)
(0 -5.235907634e-16 -3.680466081e-15)
(0 -3.973346772e-16 -3.47577094e-15)
(0 -2.786794739e-16 -3.324831771e-15)
(0 -1.653187379e-16 -3.225427098e-15)
(0 -5.484205043e-17 -3.1760896e-15)
(0 0.1761854372 0.006771134743)
(0 0.181286859 0.04460605783)
(0 0.08502255716 -0.1208517537)
(0 -0.3532378721 -0.8912196884)
(0 -0.7734916647 -1.807992602)
(0 -0.7984483174 -2.013455923)
(0 -0.3239227358 -1.145260536)
(0 0.00733535002 -0.0878854532)
(0 -7.729255764e-14 -7.284904968e-16)
(0 -1.521455708e-13 -2.088854062e-14)
(0 -1.440320189e-13 -3.908067277e-14)
(0 -1.322280745e-13 -5.357005422e-14)
(0 -1.182184518e-13 -6.388880141e-14)
(0 -1.034471191e-13 -7.021775194e-14)
(0 -8.898006466e-14 -7.311314167e-14)
(0 -7.550792387e-14 -7.327967718e-14)
(0 -6.340760528e-14 -7.142166352e-14)
(0 -5.282452915e-14 -6.816312707e-14)
(0 -4.375025098e-14 -6.401617044e-14)
(0 -3.608469955e-14 -5.937812032e-14)
(0 -2.968114063e-14 -5.454329017e-14)
(0 -2.437609591e-14 -4.972040387e-14)
(0 -2.000771716e-14 -4.50506656e-14)
(0 -1.642600435e-14 -4.062403977e-14)
(0 -1.349762454e-14 -3.649282899e-14)
(0 -1.110737081e-14 -3.26824525e-14)
(0 -9.157673357e-15 -2.919970846e-14)
(0 -7.567092267e-15 -2.603894037e-14)
(0 -6.268373524e-15 -2.318653834e-14)
(0 -5.206413736e-15 -2.062415974e-14)
(0 -4.336324032e-15 -1.83309885e-14)
(0 -3.621686489e-15 -1.628528575e-14)
(0 -3.033037851e-15 -1.44654266e-14)
(0 -2.546581913e-15 -1.285056937e-14)
(0 -2.143114394e-15 -1.142106565e-14)
(0 -1.807136165e-15 -1.015869039e-14)
(0 -1.526128422e-15 -9.046749379e-15)
(0 -1.289964144e-15 -8.070104841e-15)
(0 -1.09043251e-15 -7.215148571e-15)
(0 -9.20855851e-16 -6.469742819e-15)
(0 -7.757817621e-16 -5.823143305e-15)
(0 -6.507358062e-16 -5.265914147e-15)
(0 -5.42022794e-16 -4.78984138e-15)
(0 -4.465667812e-16 -4.387849542e-15)
(0 -3.617817607e-16 -4.053924233e-15)
(0 -2.854665247e-16 -3.783042524e-15)
(0 -2.157183948e-16 -3.571112343e-15)
(0 -1.508614858e-16 -3.414921524e-15)
(0 -8.938654382e-17 -3.312096846e-15)
(0 -2.965730364e-17 -3.261073267e-15)
(0 0.2014192805 0.01043296862)
(0 0.1924044089 0.05475806704)
(0 0.1942659292 0.0659649411)
(0 -0.1007866512 -0.4356870435)
(0 -0.6134708217 -1.493842201)
(0 -0.897101613 -2.154606319)
(0 -0.5635781853 -1.622765936)
(0 0.006456471497 -0.2554979105)
(0 -8.920736519e-14 -1.256420786e-15)
(0 -1.747405343e-13 -2.808730787e-14)
(0 -1.623553127e-13 -5.168931001e-14)
(0 -1.457358563e-13 -6.936416672e-14)
(0 -1.269241189e-13 -8.089917336e-14)
(0 -1.079081064e-13 -8.698311319e-14)
(0 -9.001437315e-14 -8.870186704e-14)
(0 -7.397687092e-14 -8.719772843e-14)
(0 -6.009111205e-14 -8.348948033e-14)
(0 -4.836763085e-14 -7.840331891e-14)
(0 -3.865351871e-14 -7.256674409e-14)
(0 -3.071732241e-14 -6.643209713e-14)
(0 -2.430303819e-14 -6.031007879e-14)
(0 -1.91614375e-14 -5.440312829e-14)
(0 -1.506617648e-14 -4.883430792e-14)
(0 -1.182038971e-14 -4.367045206e-14)
(0 -9.25773876e-15 -3.893983073e-14)
(0 -7.240506516e-15 -3.464516493e-14)
(0 -5.656337548e-15 -3.077295935e-14)
(0 -4.414558994e-15 -2.730004023e-14)
(0 -3.442590958e-15 -2.419803475e-14)
(0 -2.682694777e-15 -2.143636865e-14)
(0 -2.089155155e-15 -1.898421638e-14)
(0 -1.625907907e-15 -1.681172323e-14)
(0 -1.264582214e-15 -1.489072914e-14)
(0 -9.829077361e-16 -1.319515743e-14)
(0 -7.634319692e-16 -1.170118266e-14)
(0 -5.924953533e-16 -1.038725685e-14)
(0 -4.594170485e-16 -9.23404814e-15)
(0 -3.558508946e-16 -8.224328675e-15)
(0 -2.7527764e-16 -7.342836224e-15)
(0 -2.126055645e-16 -6.576125573e-15)
(0 -1.638568728e-16 -5.912420081e-15)
(0 -1.259216722e-16 -5.341469852e-15)
(0 -9.636500415e-17 -4.85442036e-15)
(0 -7.327537719e-17 -4.443693683e-15)
(0 -5.514563266e-17 -4.102883372e-15)
(0 -4.077887357e-17 -3.826663303e-15)
(0 -2.921367769e-17 -3.610710456e-15)
(0 -1.966397625e-17 -3.451641358e-15)
(0 -1.147048104e-17 -3.346961817e-15)
(0 -3.818471861e-18 -3.295029598e-15)
(0 0.2379119769 0.01780322472)
(0 0.2227993004 0.05758048933)
(0 0.2367476817 0.1328673592)
(0 0.1297024062 -0.03846173209)
(0 -0.3552488696 -1.021889163)
(0 -0.9271599949 -2.098813227)
(0 -0.8207491356 -2.071000506)
(0 -0.001617183758 -0.5815950892)
(0 -1.046494444e-13 -4.147451277e-15)
(0 -2.039793105e-13 -3.962531257e-14)
(0 -1.853088777e-13 -7.02199769e-14)
(0 -1.614379379e-13 -9.129362824e-14)
(0 -1.358373982e-13 -1.033586229e-13)
(0 -1.112498127e-13 -1.081133742e-13)
(0 -8.91946799e-14 -1.075140994e-13)
(0 -7.029553717e-14 -1.033208503e-13)
(0 -5.461319575e-14 -9.693620299e-14)
(0 -4.19017929e-14 -8.939479956e-14)
(0 -3.177902921e-14 -8.141609803e-14)
(0 -2.382803424e-14 -7.347398676e-14)
(0 -1.765217179e-14 -6.586219665e-14)
(0 -1.290032504e-14 -5.874800395e-14)
(0 -9.275040934e-15 -5.221317879e-14)
(0 -6.53152716e-15 -4.62837578e-14)
(0 -4.472337417e-15 -4.095095827e-14)
(0 -2.940499429e-15 -3.618546577e-14)
(0 -1.812548654e-15 -3.194695003e-14)
(0 -9.921676682e-16 -2.819023767e-14)
(0 -4.047019489e-16 -2.486919329e-14)
(0 7.404634241e-18 -2.193905911e-14)
(0 2.883213862e-16 -1.935777692e-14)
(0 4.718007528e-16 -1.708665149e-14)
(0 5.835279571e-16 -1.50905983e-14)
(0 6.429645693e-16 -1.333813739e-14)
(0 6.647861792e-16 -1.180123989e-14)
(0 6.599983536e-16 -1.045509595e-14)
(0 6.36799755e-16 -9.277848084e-15)
(0 6.012477718e-16 -8.25031667e-15)
(0 5.577705928e-16 -7.355733996e-15)
(0 5.095602925e-16 -6.579495794e-15)
(0 4.588739591e-16 -5.908934879e-15)
(0 4.072639152e-16 -5.333118698e-15)
(0 3.557533747e-16 -4.842670928e-15)
(0 3.049702061e-16 -4.429616318e-15)
(0 2.552486195e-16 -4.087247515e-15)
(0 2.067063913e-16 -3.810012421e-15)
(0 1.593035497e-16 -3.593420632e-15)
(0 1.128871536e-16 -3.433967633e-15)
(0 6.722521704e-17 -3.329075585e-15)
(0 2.227491575e-17 -3.277049757e-15)
(0 0.2808396066 0.02300655613)
(0 0.2724908614 0.0672164334)
(0 0.268945882 0.1361413893)
(0 0.2787968476 0.1915676838)
(0 -0.003227617717 -0.4477216714)
(0 -0.8231223467 -1.792702386)
(0 -1.033335723 -2.411316169)
(0 -0.01851531258 -1.103342729)
(0 -1.263768607e-13 -8.673962361e-15)
(0 -2.436433271e-13 -5.850900413e-14)
(0 -2.140236284e-13 -9.826198854e-14)
(0 -1.788745023e-13 -1.222258125e-13)
(0 -1.437438649e-13 -1.331270148e-13)
(0 -1.120635829e-13 -1.345986342e-13)
(0 -8.522184918e-14 -1.299220889e-13)
(0 -6.339897454e-14 -1.216372078e-13)
(0 -4.616506135e-14 -1.115412569e-13)
(0 -3.284752588e-14 -1.008248061e-13)
(0 -2.273270591e-14 -9.022976268e-14)
(0 -1.516342103e-14 -8.018618783e-14)
(0 -9.577055376e-15 -7.091714495e-14)
(0 -5.512419641e-15 -6.251379105e-14)
(0 -2.60193034e-15 -5.498681988e-14)
(0 -5.581691983e-16 -4.830054503e-14)
(0 8.405532698e-16 -4.239483412e-14)
(0 1.763501724e-15 -3.719881432e-14)
(0 2.338890553e-15 -3.263914237e-14)
(0 2.663197745e-15 -2.864476049e-14)
(0 2.808587604e-15 -2.514942837e-14)
(0 2.828721599e-15 -2.2092881e-14)
(0 2.763252469e-15 -1.942116286e-14)
(0 2.641270712e-15 -1.708648971e-14)
(0 2.48393188e-15 -1.504685815e-14)
(0 2.306450676e-15 -1.326553811e-14)
(0 2.119609474e-15 -1.171052902e-14)
(0 1.930896449e-15 -1.035402583e-14)
(0 1.745362232e-15 -9.171919762e-15)
(0 1.566263193e-15 -8.143345353e-15)
(0 1.395543235e-15 -7.25027786e-15)
(0 1.234193553e-15 -6.477180306e-15)
(0 1.082520223e-15 -5.810697412e-15)
(0 9.403422792e-16 -5.23939238e-15)
(0 8.071373766e-16 -4.753522247e-15)
(0 6.821480359e-16 -4.344847618e-15)
(0 5.644582642e-16 -4.006472889e-15)
(0 4.530480095e-16 -3.732713553e-15)
(0 3.468311103e-16 -3.518987631e-15)
(0 2.446810708e-16 -3.361728787e-15)
(0 1.454473949e-16 -3.258319105e-15)
(0 4.820735605e-17 -3.207040003e-15)
(0 0.3290016342 0.02449254424)
(0 0.3272247138 0.07530994442)
(0 0.3244166567 0.1256286992)
(0 0.3354709681 0.2417494201)
(0 0.3701513649 0.09629326828)
(0 -0.5303752485 -1.215017451)
(0 -1.130190216 -2.532064821)
(0 -0.04015059205 -1.812684936)
(0 -1.584200675e-13 -1.946209592e-14)
(0 -2.986740201e-13 -9.216333547e-14)
(0 -2.490256861e-13 -1.420798639e-13)
(0 -1.963029641e-13 -1.662160593e-13)
(0 -1.4821022e-13 -1.723267243e-13)
(0 -1.080448868e-13 -1.672357554e-13)
(0 -7.623325349e-14 -1.559421223e-13)
(0 -5.191470523e-14 -1.417676673e-13)
(0 -3.380079402e-14 -1.267690543e-13)
(0 -2.059029864e-14 -1.121349649e-13)
(0 -1.114041096e-14 -9.849299442e-14)
(0 -4.515416519e-15 -8.612451703e-14)
(0 2.022498691e-17 -7.510680711e-14)
(0 3.03000004e-15 -6.540342775e-14)
(0 4.938205087e-15 -5.691988721e-14)
(0 6.0604586e-15 -4.953682232e-14)
(0 6.629393292e-15 -4.312903146e-14)
(0 6.815192314e-15 -3.757580384e-14)
(0 6.741505182e-15 -3.27660208e-14)
(0 6.497546341e-15 -2.860020388e-14)
(0 6.147177538e-15 -2.499084735e-14)
(0 5.735670136e-15 -2.186184302e-14)
(0 5.294712672e-15 -1.914747514e-14)
(0 4.846105467e-15 -1.679126021e-14)
(0 4.404479562e-15 -1.474478305e-14)
(0 3.979293699e-15 -1.296660712e-14)
(0 3.576298454e-15 -1.142129399e-14)
(0 3.198607612e-15 -1.007854262e-14)
(0 2.847480236e-15 -8.912445802e-15)
(0 2.522889674e-15 -7.900854916e-15)
(0 2.22393564e-15 -7.024841108e-15)
(0 1.94914074e-15 -6.268240801e-15)
(0 1.696661886e-15 -5.617273851e-15)
(0 1.46443908e-15 -5.060223879e-15)
(0 1.250298136e-15 -4.58717158e-15)
(0 1.052019564e-15 -4.1897732e-15)
(0 8.673826853e-16 -3.861077595e-15)
(0 6.941916498e-16 -3.595376425e-15)
(0 5.302883156e-16 -3.388083045e-15)
(0 3.735556798e-16 -3.235636514e-15)