/*--------------------------------*- C++ -*----------------------------------*\
  =========                 |
  \\      /  F ield         | OpenFOAM: The Open Source CFD Toolbox
   \\    /   O peration     | Website:  https://openfoam.org
    \\  /    A nd           | Version:  6
     \\/     M anipulation  |
\*---------------------------------------------------------------------------*/
FoamFile
{
    version     2.0;
    format      ascii;
    class       volScalarField;
    location    "0.11";
    object      ViscousDissipation;
}
// * * * * * * * * * * * * * * * * * * * * * * * * * * * * * * * * * * * * * //

dimensions      [1 -1 -3 0 0 0 0];

internalField   nonuniform List<scalar> 
2500
(
25.26643247
16.18001632
1.080698018
0.09848537271
0.1284069986
0.5159522932
0.5329530888
0.01754123806
0.02032823122
4.221550868e-24
4.563772304e-26
9.037553223e-26
1.46000114e-25
2.040644953e-25
2.581420882e-25
3.031343347e-25
3.357638108e-25
3.546529191e-25
3.600840701e-25
3.535730512e-25
3.373845175e-25
3.140870915e-25
2.862043743e-25
2.559809947e-25
2.252564716e-25
1.954252645e-25
1.674567376e-25
1.419504945e-25
1.192074897e-25
9.930316265e-26
8.215417559e-26
6.757453979e-26
5.531984926e-26
4.512016295e-26
3.670303558e-26
2.980856338e-26
2.419830827e-26
1.965976255e-26
1.600773057e-26
1.308370571e-26
1.075404873e-26
8.907544307e-27
7.452731077e-27
6.315262731e-27
5.43545829e-27
4.766131664e-27
4.270749655e-27
3.921958273e-27
3.700585594e-27
3.825687696e-27
4.915133998
8.218059307
2.767532995
0.3594601971
0.1019301504
0.1366642112
0.1585614009
0.06604677278
0.06180744925
4.308355141e-24
6.811685407e-26
1.123692108e-25
1.674519215e-25
2.246754825e-25
2.775595184e-25
3.210233007e-25
3.518618466e-25
3.688018056e-25
3.72238112e-25
3.637883856e-25
3.457966572e-25
3.208839388e-25
2.916003149e-25
2.601954744e-25
2.284984382e-25
1.978834011e-25
1.692945789e-25
1.433051926e-25
1.201910082e-25
1.000048711e-25
8.264407249e-26
6.790658036e-26
5.553506123e-26
4.524938688e-26
3.676923074e-26
2.982868483e-26
2.418479571e-26
1.962169697e-26
1.595171762e-26
1.3014541e-26
1.067521292e-26
8.821568012e-27
7.361461347e-27
6.220055754e-27
5.33731602e-27
4.665791528e-27
4.16871869e-27
3.818420211e-27
3.596256251e-27
5.553748166e-27
1.163471934
5.712007865
5.939428999
1.642944377
0.1472977323
0.01399399713
0.07268246583
0.07004563578
0.002021480233
4.488664536e-24
1.156835812e-25
1.59116278e-25
2.129598896e-25
2.682223393e-25
3.183873996e-25
3.584501592e-25
3.853772889e-25
3.981217146e-25
3.97313468e-25
3.847772921e-25
3.630144253e-25
3.347459016e-25
3.025684322e-25
2.687351502e-25
2.350478777e-25
2.028349731e-25
1.729860824e-25
1.460183807e-25
1.221548353e-25
1.014013743e-25
8.361534729e-26
6.856182581e-26
5.595708756e-26
4.55002866e-26
3.689511848e-26
2.986353544e-26
2.415347596e-26
1.954231267e-26
1.583740128e-26
1.287479478e-26
1.051690625e-26
8.649671498e-27
7.179582458e-27
6.030827143e-27
5.142675369e-27
4.467182903e-27
3.96724269e-27
3.614983483e-27
3.391599561e-27
8.907247174e-27
0.1168024735
2.067803183
6.749380743
4.844540226
0.9692803251
0.07058220731
0.1050476797
0.02948715076
0.05525166464
4.773246954e-24
1.953511589e-25
2.370801972e-25
2.883413017e-25
3.397960285e-25
3.849420765e-25
4.189588524e-25
4.39129848e-25
4.447891328e-25
4.369421018e-25
4.177300623e-25
3.898833722e-25
3.562586625e-25
3.195046798e-25
2.81861515e-25
2.450736477e-25
2.103867595e-25
1.785975801e-25
1.501308215e-25
1.25124121e-25
1.035086962e-25
8.50790091e-26
6.954879731e-26
5.659345991e-26
4.58802518e-26
3.708839329e-26
2.992132226e-26
2.411313915e-26
1.943097878e-26
1.567468813e-26
1.26748537e-26
1.028993387e-26
8.403018961e-27
6.918563169e-27
5.759301775e-27
4.863474266e-27
4.182412063e-27
3.67851027e-27
3.32357921e-27
3.098568148e-27
1.36862674e-26
0.9163459339
0.09501147764
4.72116731
7.692870311
3.518364616
0.3608433245
0.03434091588
0.009140322283
0.0830625196
5.190395787e-24
3.196132636e-25
3.576314601e-25
4.037222578e-25
4.481343093e-25
4.845258662e-25
5.084610217e-25
5.177593525e-25
5.123389202e-25
4.937417314e-25
4.645336517e-25
4.277292203e-25
3.863310661e-25
3.430176022e-25
2.999728947e-25
2.588308783e-25
2.2069893e-25
1.862279726e-25
1.557030368e-25
1.291361551e-25
1.063506586e-25
8.705153486e-26
7.088035326e-26
5.745560393e-26
4.640049691e-26
3.736069292e-26
3.001439479e-26
2.407693912e-26
1.930164136e-26
1.547825336e-26
1.243003836e-26
1.001017395e-26
8.097962088e-27
6.595151773e-27
5.42255508e-27
4.517051118e-27
3.82901607e-27
3.320182873e-27
2.961912936e-27
2.734789609e-27
1.960654075e-26
2.581454647
1.158915718
1.427778254
7.070120753
7.603615839
1.430443493
0.001171188554
0.008040892395
0.1327373203
5.778193539e-24
5.092484009e-25
5.395325908e-25
5.755525657e-25
6.071857312e-25
6.285813362e-25
6.360460309e-25
6.282662595e-25
6.060064965e-25
5.715200205e-25
5.278847793e-25
4.784138942e-25
4.262173217e-25
3.739317455e-25
3.235982877e-25
2.766505893e-25
2.339733504e-25
1.959971769e-25
1.628045316e-25
1.342305695e-25
1.099500551e-25
8.95469271e-26
7.256651618e-26
5.855232595e-26
4.707011288e-26
3.772213639e-26
3.015420481e-26
2.405772199e-26
1.916847635e-26
1.526347996e-26
1.215679548e-26
9.694992701e-27
7.752650814e-27
6.228157928e-27
5.039944347e-27
4.123209062e-27
3.427150364e-27
2.912683292e-27
2.550610422e-27
2.321065876e-27
2.631359926e-26
3.778135185
4.522136262
0.01927434629
3.852352634
9.525680694
4.133109894
0.1163639875
0.00909395695
0.2443878867
6.594592586e-24
7.985534456e-25
8.133146582e-25
8.300950442e-25
8.387475838e-25
8.345856186e-25
8.152760264e-25
7.808563406e-25
7.332540783e-25
6.755877138e-25
6.114676795e-25
5.444315999e-25
4.77566455e-25
4.133121299e-25
3.534095086e-25
2.989464477e-25
2.504584753e-25
2.080507383e-25
1.71518688e-25
1.404545861e-25
1.143341255e-25
9.258223138e-26
7.461986624e-26
5.989495249e-26
4.790086374e-26
3.818572529e-26
3.035528856e-26
2.407158645e-26
1.904904001e-26
1.504922117e-26
1.187510034e-26
9.365318742e-27
7.388813361e-27
5.839973199e-27
4.634405007e-27
3.705322719e-27
3.000536919e-27
2.480001174e-27
2.113862842e-27
1.881734317e-27
3.340334089e-26
3.576890376
7.471253423
1.97392996
0.6969948877
7.985783065
8.044028356
0.987832079
0.001684982632
0.4429979999
7.730459742e-24
1.244670567e-24
1.228965424e-24
1.209400216e-24
1.176830633e-24
1.129062865e-24
1.066159014e-24
9.901697904e-25
9.044983738e-25
8.131661571e-25
7.201674788e-25
6.290105919e-25
5.424636544e-25
4.62475288e-25
3.902186601e-25
3.262073821e-25
2.704412369e-25
2.225526779e-25
1.819370363e-25
1.478586372e-25
1.195312603e-25
9.617503352e-26
7.705357791e-26
6.149571095e-26
4.890577103e-26
3.876603602e-26
3.063400447e-26
2.41366284e-26
1.896299793e-26
1.485650202e-26
1.160712582e-26
9.044278598e-27
7.030359825e-27
5.455145731e-27
4.230999947e-27
3.288865331e-27
2.574970647e-27
2.048177356e-27
1.6778915e-27
1.443137823e-27
4.044538778e-26
2.320919499
7.245444246
6.004591079
0.2854810864
4.24434525
11.27699105
3.221114078
0.01184930806
0.5412050486
9.337951911e-24
1.94525336e-24
1.869846614e-24
1.781712346e-24
1.674924683e-24
1.552359267e-24
1.41812218e-24
1.277039632e-24
1.134096264e-24
9.939069097e-25
8.603230979e-25
7.362219378e-25
6.234663879e-25
5.229922093e-25
4.349683717e-25
3.589848818e-25
2.942354909e-25
2.39676358e-25
1.941525628e-25
1.564916764e-25
1.255677851e-25
1.003412479e-25
7.987984698e-26
6.336653287e-26
5.009811451e-26
3.947830221e-26
3.100762583e-26
2.427200238e-26
1.893113339e-26
1.470746509e-26
1.137612356e-26
8.756015941e-27
6.702144438e-27
5.099091667e-27
3.855586552e-27
2.90003767e-27
2.176915876e-27
1.643873738e-27
1.269499896e-27
1.032172941e-27
4.700837929e-26
0.3851935024
3.874239604
8.70746985
3.45422765
0.8144922781
11.21261765
7.087630639
0.263073799
0.3929680581
1.163732266e-23
3.067491974e-24
2.878106059e-24
2.659929601e-24
2.418182389e-24
2.166177916e-24
1.914422582e-24
1.670938813e-24
1.441624538e-24
1.230513124e-24
1.039997522e-24
8.710745935e-25
7.23619715e-25
5.966725853e-25
4.887079372e-25
3.97870597e-25
3.221641579e-25
2.595913977e-25
2.082505899e-25
1.663950004e-25
1.324638127e-25
1.050922943e-25
8.310788754e-26
6.551752831e-26
5.149016156e-26
4.033726026e-26
3.14932194e-26
2.449678624e-26
1.89741736e-26
1.46241476e-26
1.120514935e-26
8.52436691e-27
6.428595005e-27
4.796683898e-27
3.533370251e-27
2.564291731e-27
1.832005411e-27
1.292853105e-27
9.14540522e-28
6.747500167e-28
5.268589438e-26
0.009566451075
1.051443805
7.525543938
8.349415257
0.3457863933
7.41360171
11.05344112
1.380755798
0.9845612079
1.495246356e-23
4.914500796e-24
4.506660834e-24
4.035595492e-24
3.543994689e-24
3.065354081e-24
2.618541359e-24
2.213260062e-24
1.85344751e-24
1.539415651e-24
1.269218839e-24
1.039562151e-24
8.464282896e-25
6.85516927e-25
5.525478184e-25
4.434602158e-25
3.545329896e-25
2.824455894e-25
2.242966913e-25
1.775942871e-25
1.402279787e-25
1.104315289e-25
8.674138799e-26
6.795503625e-26
5.309154373e-26
4.135569023e-26
3.210625637e-26
2.482860964e-26
1.911140831e-26
1.46270774e-26
1.111563184e-26
8.371401633e-27
6.232229347e-27
4.570746467e-27
3.287380168e-27
2.304790876e-27
1.563488256e-27
1.018417478e-27
6.363468909e-28
3.942215585e-28
5.712154371e-26
0.01657801351
0.08806622324
3.869194503
11.42923571
4.054690471
2.474099669
13.59750058
4.189323408
10.69020637
2.073457164e-23
8.186200477e-24
7.238704385e-24
6.24271067e-24
5.276371887e-24
4.395784796e-24
3.623086064e-24
2.961452824e-24
2.404459421e-24
1.941385471e-24
1.560104534e-24
1.248605698e-24
9.957529668e-25
7.916193041e-25
6.275838078e-25
4.962994847e-25
3.915941301e-25
3.083410767e-25
2.423213793e-25
1.900897739e-25
1.488510495e-25
1.163499353e-25
9.077543559e-26
7.067926158e-26
5.490729422e-26
4.254267152e-26
3.285898254e-26
2.528208135e-26
1.935914384e-26
1.473373836e-26
1.112584239e-26
8.315895671e-27
6.132127626e-27
4.440527904e-27
3.136943816e-27
2.140886171e-27
1.39070778e-27
8.398881563e-28
4.542153375e-28
2.098654046e-28
6.003172223e-26
0.04225401682
0.02512112378
1.067988214
10.06937848
10.77998285
0.2204553626
13.64969185
9.572954161
89.2578712
2.986884411e-23
1.425915582e-23
1.198153867e-23
9.863423288e-24
7.979474091e-24
6.380107411e-24
5.061313376e-24
3.993708211e-24
3.139673462e-24
2.461844467e-24
1.926722567e-24
1.505811418e-24
1.175590243e-24
9.170007634e-25
7.147820525e-25
5.568088901e-25
4.334983323e-25
3.373045892e-25
2.623016727e-25
2.038447562e-25
1.582985657e-25
1.228212046e-25
9.519301134e-26
7.368158358e-26
5.693562327e-26
4.39016285e-26
3.375862416e-26
2.586709493e-26
1.972907564e-26
1.495699197e-26
1.124935551e-26
8.371823394e-27
6.142454493e-27
4.420248814e-27
3.096257088e-27
2.086705802e-27
1.327707519e-27
7.712248029e-28
3.8203421e-28
1.355207018e-28
6.122454947e-26
0.06334051044
0.09829202752
0.07116860412
5.367142506
16.76448351
4.228043034
10.41564275
17.90560808
462.0337723
4.519684078e-23
2.546070494e-23
2.032442378e-23
1.588244294e-23
1.223445569e-23
9.35165535e-24
7.120415524e-24
5.413224646e-24
4.114963754e-24
3.130462182e-24
2.384470685e-24
1.818936902e-24
1.389687232e-24
1.06335435e-24
8.148183996e-25
6.251855212e-25
4.802361181e-25
3.692524539e-25
2.841402333e-25
2.187729386e-25
1.685029097e-25
1.297964897e-25
9.99612701e-26
7.69417089e-26
5.916558042e-26
4.542830153e-26
3.480555789e-26
2.658713707e-26
2.022670099e-26
1.530357424e-26
1.149361733e-26
8.546988514e-27
6.27114418e-27
4.517834803e-27
3.173158658e-27
2.149964797e-27
1.382070202e-27
8.198878407e-28
4.271637508e-28
1.784794003e-28
6.061365726e-26
0.08486064362
0.1237248842
0.1157126225
1.152319153
16.73520722
15.76872239
4.791341946
27.73435523
1664.053647
7.492935545e-23
4.775823685e-23
3.547768116e-23
2.603124145e-23
1.896617708e-23
1.379820909e-23
1.005406383e-23
7.349927651e-24
5.395713089e-24
3.979412325e-24
2.948691022e-24
2.19495055e-24
1.640950841e-24
1.231690449e-24
9.278714897e-25
7.012845089e-25
5.315704877e-25
4.039524443e-25
3.076435274e-25
2.34725629e-25
1.793554693e-25
1.371993006e-25
1.0502795e-25
8.042493899e-26
6.157482887e-26
4.710884085e-26
3.599162354e-26
2.743776371e-26
2.084992634e-26
1.577281392e-26
1.185875978e-26
8.841922667e-27
6.518873118e-27
4.733953611e-27
3.368222645e-27
2.331104601e-27
1.554095917e-27
9.860471601e-28
5.896675149e-28
3.387326857e-28
5.822571872e-26
0.1011942411
0.1107622529
0.2116879127
0.01809378923
9.081643512
29.62268667
2.246928962
34.49282063
4494.033558
1.364799932e-22
9.374487425e-23
6.348030762e-23
4.323293259e-23
2.958760007e-23
2.039844294e-23
1.418501015e-23
9.955139173e-24
7.051367567e-24
5.039483298e-24
3.632230264e-24
2.638598043e-24
1.930637086e-24
1.421889321e-24
1.053379696e-24
7.844883122e-25
5.869669309e-25
4.409861974e-25
3.325013642e-25
2.514802602e-25
1.906998592e-25
1.44921195e-25
1.103183836e-25
8.407991501e-26
6.412782682e-26
4.891827356e-26
3.72987985e-26
2.840543936e-26
2.158804577e-26
1.635573214e-26
1.233680738e-26
9.249186779e-27
6.878444409e-27
5.06147182e-27
3.674277186e-27
2.622863638e-27
1.83641524e-27
1.262228772e-27
8.61983854e-28
6.086588301e-28
5.420094697e-26
0.1036749732
0.1058253749
0.1543871256
0.3508630019
1.764632964
30.34452776
11.59403146
32.38896969
9454.290895
2.632119029e-22
1.893623504e-22
1.15145888e-22
7.212307852e-23
4.609806676e-23
3.001304792e-23
1.988046918e-23
1.338240009e-23
9.14352776e-24
6.333336765e-24
4.441799438e-24
3.150489673e-24
2.257363636e-24
1.6321977e-24
1.189787021e-24
8.735794801e-25
6.455300606e-25
4.797176697e-25
3.582710396e-25
2.68732188e-25
2.023274233e-25
1.528190756e-25
1.15733683e-25
8.783727043e-26
6.677475685e-26
5.081962459e-26
3.869847173e-26
2.946694437e-26
2.242126888e-26
1.703468029e-26
1.291141479e-26
9.753197885e-27
7.334693482e-27
5.485429091e-27
4.076437347e-27
3.01035939e-27
2.21411142e-27
1.633468505e-27
1.229102886e-27
9.732154604e-28
4.878621563e-26
0.09483570308
0.1053148624
0.09061421763
0.3039850841
0.06287628428
16.90259556
33.0329696
20.50528787
15933.76559
4.78355826e-22
3.827540232e-22
2.079072229e-22
1.191825028e-22
7.09317343e-23
4.355530247e-23
2.747604877e-23
1.7747739e-23
1.170619656e-23
7.865910183e-24
5.373366005e-24
3.724906009e-24
2.616073303e-24
1.85874425e-24
1.334319838e-24
9.666398545e-25
7.059593965e-25
5.192745186e-25
3.843699458e-25
2.860920037e-25
2.139763843e-25
1.607149786e-25
1.21150711e-25
9.160963987e-26
6.945154841e-26
5.276396709e-26
4.015154211e-26
3.058953655e-26
2.332095382e-26
1.77836467e-26
1.355824486e-26
1.033067369e-26
7.864992655e-27
5.983595527e-27
4.552707867e-27
3.471729243e-27
2.665392325e-27
2.078008328e-27
1.669280806e-27
1.410665669e-27
4.232094433e-26
0.08219720049
0.09328456484
0.07608658567
0.1404359986
0.3889312908
4.955410195
50.73956837
6.358978442
21971.56026
7.940170434e-22
7.452119108e-22
3.634085717e-22
1.911395483e-22
1.061924628e-22
6.165803145e-23
3.713456972e-23
2.306984051e-23
1.472021329e-23
9.613404298e-24
6.407394726e-24
4.347750523e-24
2.997166902e-24
2.095184004e-24
1.482849913e-24
1.061004276e-24
7.665386559e-25
5.585498888e-25
4.100806562e-25
3.030906037e-25
2.253359604e-25
1.683991829e-25
1.264243934e-25
9.529341842e-26
7.208128558e-26
5.469162478e-26
4.160951347e-26
3.173200104e-26
2.425064937e-26
1.856931171e-26
1.424604715e-26
1.095173852e-26
8.440384846e-27
6.527631361e-27
5.075165994e-27
3.979333135e-27
3.162809414e-27
2.56852821e-27
2.155281268e-27
1.893825614e-27
3.521641698e-26
0.06940493793
0.0763648726
0.08605518197
0.08665853452
0.428080985
0.681057028
49.21785457
0.1882320464
24855.75781
1.686697197e-21
1.321551684e-21
5.924536402e-22
2.903522126e-22
1.521894743e-22
8.418446189e-23
4.86735667e-23
2.920638395e-23
1.808903472e-23
1.151396072e-23
7.505299049e-24
4.995257751e-24
3.386082605e-24
2.33260005e-24
1.629903902e-24
1.153297388e-24
8.251723423e-25
5.962313873e-25
4.34571922e-25
3.191938281e-25
2.360564613e-25
1.756372405e-25
1.313927516e-25
9.877252207e-26
7.457717077e-26
5.653464288e-26
4.301666398e-26
3.284663672e-26
2.516797102e-26
1.935285762e-26
1.493842848e-26
1.158167034e-26
9.027316515e-27
7.084811348e-27
5.611680558e-27
4.501469234e-27
3.674971175e-27
3.07385804e-27
2.656086297e-27
2.391774761e-27
2.792971845e-26
0.05507159519
0.05936337146
0.08587708097
0.06909155675
0.254461886
0.6204947909
37.17523314
4.996832614
22704.28504
4.168721126e-21
2.044906443e-21
8.767246994e-22
4.104524836e-22
2.062625891e-22
1.098746129e-22
6.145036445e-23
3.581539787e-23
2.162595381e-23
1.346382586e-23
8.608619337e-24
5.634089418e-24
3.763593058e-24
2.559780694e-24
1.768871252e-24
1.239576429e-24
8.794797125e-25
6.308616898e-25
4.569375412e-25
3.338275414e-25
2.457657534e-25
1.821811018e-25
1.358847262e-25
1.019241664e-25
7.684702964e-26
5.822049156e-26
4.431323768e-26
3.388211429e-26
2.602723658e-26
2.009245158e-26
1.559622742e-26
1.218319612e-26
9.58987341e-27
7.620214665e-27
6.128066076e-27
5.004499939e-27
4.168647226e-27
3.561065065e-27
3.13897166e-27
2.871923347e-27
2.093393823e-26
0.0385679807
0.04359591182
0.07028043556
0.0844508466
0.1094287749
1.706775467
26.88750952
14.73534043
17568.01077
7.388139561e-21
2.786764755e-21
1.176941233e-21
5.377703313e-22
2.630120245e-22
1.363813265e-22
7.437230925e-23
4.236273801e-23
2.506026471e-23
1.532190243e-23
9.64209649e-24
6.22329545e-24
4.107013644e-24
2.763948685e-24
1.892439481e-24
1.315590022e-24
9.269489323e-25
6.609310537e-25
4.762526303e-25
3.464125639e-25
2.540915711e-25
1.877839086e-25
1.397304465e-25
1.046263777e-25
7.879911106e-26
5.967678166e-26
4.543945562e-26
3.478701588e-26
2.678267977e-26
2.074622614e-26
1.618032321e-26
1.271917034e-26
1.009235801e-26
8.099222648e-27
6.590517134e-27
5.455235952e-27
4.611112903e-27
3.997768307e-27
3.571799421e-27
3.30229065e-27
1.468665128e-26
0.02195776424
0.02924123366
0.04722201836
0.1105721652
0.0447193553
2.543213317
16.43166133
26.36988151
10772.44332
8.494303776e-21
3.44566162e-21
1.450727762e-21
6.553467097e-22
3.153497041e-22
1.606032893e-22
8.602460655e-23
4.817902632e-23
2.806505419e-23
1.692400156e-23
1.052117487e-23
6.718325036e-24
4.392370656e-24
2.931944907e-24
1.993247142e-24
1.377142656e-24
9.651434099e-25
6.849961642e-25
4.916435815e-25
3.564070016e-25
2.606880333e-25
1.922173252e-25
1.427731335e-25
1.067666224e-25
8.034869456e-26
6.083658824e-26
4.633999809e-26
3.551374699e-26
2.739196193e-26
2.127550038e-26
1.665463904e-26
1.315541112e-26
1.050199456e-26
8.490119754e-27
6.968126282e-27
5.823388057e-27
4.972549087e-27
4.354498693e-27
3.925349302e-27
3.653817577e-27
9.598904087e-27
0.008645490543
0.01794168888
0.02607699874
0.1251979289
0.0901206391
2.652578174
8.872035386
36.43571125
4418.755126
6.889564786e-21
3.931272751e-21
1.65769727e-21
7.45727377e-22
3.557131363e-22
1.792040186e-22
9.489878796e-23
5.256378456e-23
3.030612121e-23
1.810640081e-23
1.116358571e-23
7.076828133e-24
4.597357373e-24
3.051760146e-24
2.064691227e-24
1.420528008e-24
9.919389992e-25
7.018129389e-25
5.023644199e-25
3.633515769e-25
2.652636159e-25
1.952896102e-25
1.448813983e-25
1.082506541e-25
8.142481507e-26
6.164382769e-26
4.696849576e-26
3.602242343e-26
2.781963163e-26
2.164792688e-26
1.698905349e-26
1.346342951e-26
1.079151514e-26
8.766565697e-27
7.235265137e-27
6.083875745e-27
5.228293904e-27
4.606907287e-27
4.175495432e-27
3.902522893e-27
6.006976687e-27
0.001465301325
0.01181483188
0.01531578181
0.1228816005
0.1792847733
2.400847086
6.860915395
41.31904981
536.2048723
4.950434842e-21
4.184534865e-21
1.768177006e-21
7.94746053e-22
3.777096176e-22
1.893285318e-22
9.970807009e-23
5.492618104e-23
3.150586287e-23
1.873538129e-23
1.150326871e-23
7.265347379e-24
4.704615553e-24
3.114177083e-24
2.101765979e-24
1.442966831e-24
1.005757972e-24
7.104648246e-25
5.078692811e-25
3.669120344e-25
2.676070152e-25
1.968621693e-25
1.459604226e-25
1.090105054e-25
8.197630121e-26
6.205805706e-26
4.729151344e-26
3.628429742e-26
2.804015499e-26
2.184023138e-26
1.716192038e-26
1.36227793e-26
1.09413755e-26
8.909704683e-27
7.373608413e-27
6.218783434e-27
5.360745736e-27
4.737627688e-27
4.305039354e-27
4.031317079e-27
4.149044436e-27
0.00146531451
0.01181484636
0.01531579891
0.1228816441
0.17928478
2.40084742
6.860916565
41.31905278
536.2050893
4.950434766e-21
4.184534928e-21
1.768176988e-21
7.947460444e-22
3.777096198e-22
1.893285384e-22
9.970807715e-23
5.492618703e-23
3.150586749e-23
1.873538469e-23
1.150327116e-23
7.265349127e-24
4.7046168e-24
3.114177977e-24
2.101766625e-24
1.442967302e-24
1.005758318e-24
7.104650821e-25
5.078694741e-25
3.669121801e-25
2.676071259e-25
1.968622537e-25
1.45960487e-25
1.090105546e-25
8.197633855e-26
6.205808521e-26
4.729153437e-26
3.628431268e-26
2.804016574e-26
2.184023856e-26
1.716192471e-26
1.362278138e-26
1.094137577e-26
8.909703524e-27
7.373606127e-27
6.218780268e-27
5.360741895e-27
4.737623343e-27
4.305034655e-27
4.031312207e-27
4.148529656e-27
0.008645532111
0.0179417339
0.02607706094
0.1251980341
0.09012063518
2.652579201
8.872039729
36.43571854
4418.756003
6.889565013e-21
3.931272706e-21
1.657697165e-21
7.457273359e-22
3.557131375e-22
1.79204036e-22
9.489880787e-23
5.256380181e-23
3.030613463e-23
1.810641073e-23
1.116359288e-23
7.076833262e-24
4.597361039e-24
3.051762779e-24
2.064693131e-24
1.420529399e-24
9.919400242e-25
7.018137017e-25
5.023649925e-25
3.633520098e-25
2.652639451e-25
1.952898615e-25
1.448815905e-25
1.082508009e-25
8.142492677e-26
6.164391202e-26
4.696855861e-26
3.602246934e-26
2.78196641e-26
2.164794867e-26
1.698906678e-26
1.346343601e-26
1.079151624e-26
8.766562507e-27
7.23525856e-27
6.083866521e-27
5.228282648e-27
4.606894517e-27
4.175481592e-27
3.902508529e-27
6.005437873e-27
0.02195783618
0.02924131143
0.04722213465
0.1105723186
0.04471952577
2.543215626
16.4316652
26.36988567
10772.44551
8.494304678e-21
3.445661324e-21
1.450727492e-21
6.55346605e-22
3.153496915e-22
1.606033114e-22
8.602463602e-23
4.81790529e-23
2.806507522e-23
1.692401726e-23
1.052118627e-23
6.718333225e-24
4.392376529e-24
2.931949137e-24
1.993250211e-24
1.377144903e-24
9.651450713e-25
6.849974041e-25
4.916445148e-25
3.564077092e-25
2.606885728e-25
1.922177382e-25
1.427734501e-25
1.067668649e-25
8.034887966e-26
6.083672845e-26
4.634010299e-26
3.551382397e-26
2.739201673e-26
2.127553752e-26
1.665466208e-26
1.315542288e-26
1.050199734e-26
8.490115376e-27
6.968116245e-27
5.823373591e-27
4.972531213e-27
4.354478275e-27
3.925327083e-27
3.65379447e-27
9.596357834e-27
0.03856807857
0.04359601518
0.07028057613
0.08445101222
0.1094293886
1.706777469
26.88749423
14.73535759
17568.01263
7.388140662e-21
2.786763872e-21
1.176940689e-21
5.377701298e-22
2.630119851e-22
1.363813467e-22
7.437234432e-23
4.236277139e-23
2.50602917e-23
1.53219228e-23
9.642111396e-24
6.223306215e-24
4.107021401e-24
2.763954296e-24
1.892443569e-24
1.315593028e-24
9.269511638e-25
6.60932726e-25
4.762538942e-25
3.464135261e-25
2.540923078e-25
1.877844747e-25
1.397308822e-25
1.046267129e-25
7.879936795e-26
5.967697718e-26
4.543960272e-26
3.478712456e-26
2.678275785e-26
2.074627977e-26
1.618035726e-26
1.271918871e-26
1.009236383e-26
8.099218446e-27
6.590504986e-27
5.455217566e-27
4.611089705e-27
3.997741508e-27
3.571770068e-27
3.302260018e-27
1.468312528e-26
0.05507171112
0.05936348376
0.08587717867
0.06909166029
0.2544622235
0.6204933286
37.17526304
4.996802854
22704.30476
4.168713475e-21
2.044904309e-21
8.767238047e-22
4.104521782e-22
2.062625196e-22
1.098746275e-22
6.145040193e-23
3.581543563e-23
2.162598502e-23
1.346384969e-23
8.608636906e-24
5.634102181e-24
3.763602303e-24
2.559787415e-24
1.768876175e-24
1.239580068e-24
8.794824288e-25
6.308637366e-25
4.569390966e-25
3.338287319e-25
2.457666696e-25
1.821818096e-25
1.358852738e-25
1.019245899e-25
7.684735605e-26
5.822074152e-26
4.431342707e-26
3.388225543e-26
2.602733914e-26
2.009252319e-26
1.559627417e-26
1.218322286e-26
9.589884082e-27
7.620212465e-27
6.128053627e-27
5.004479413e-27
4.16862045e-27
3.561033595e-27
3.138936852e-27
2.871886836e-27
2.092947132e-26
0.06940507838
0.07636499493
0.08605521107
0.08665845837
0.4280798092
0.6810592588
49.2178369
0.1882318442
24855.72924
1.686691921e-21
1.32154828e-21
5.924525502e-22
2.903518541e-22
1.521893863e-22
8.418447174e-23
4.867360503e-23
2.920642428e-23
1.808906862e-23
1.151398685e-23
7.50531843e-24
4.995271904e-24
3.38609291e-24
2.332607584e-24
1.629909453e-24
1.153301518e-24
8.251754455e-25
5.962337414e-25
4.345737229e-25
3.191952156e-25
2.36057536e-25
1.75638076e-25
1.313934022e-25
9.877302843e-26
7.457756373e-26
5.653494604e-26
4.301689561e-26
3.28468111e-26
2.51680994e-26
1.935294895e-26
1.493848987e-26
1.158170757e-26
9.027334226e-27
7.084813357e-27
5.611670007e-27
4.501448743e-27
3.674942955e-27
3.073823995e-27
2.656048096e-27
2.39173439e-27
2.792436065e-26
0.08219740667
0.09328476635
0.07608663048
0.1404356794
0.3889309628
4.955405648
50.73956194
6.358953812
21971.54902
7.940145184e-22
7.45209903e-22
3.634077008e-22
1.911392146e-22
1.061923731e-22
6.165804e-23
3.713460884e-23
2.306988242e-23
1.472024877e-23
9.613431739e-24
6.407415136e-24
4.34776548e-24
2.997177842e-24
2.095192048e-24
1.48285588e-24
1.061008747e-24
7.665420421e-25
5.585524778e-25
4.100826525e-25
3.030921536e-25
2.2533717e-25
1.684001303e-25
1.264251366e-25
9.529400124e-26
7.208174141e-26
5.469197942e-26
4.160978703e-26
3.173220934e-26
2.425080494e-26
1.856942456e-26
1.424612533e-26
1.095178855e-26
8.440412035e-27
6.52764007e-27
5.075159843e-27
3.97931516e-27
3.162782202e-27
2.568494001e-27
2.15524205e-27
1.893783711e-27
3.52102295e-26
0.0948360442
0.1053152664
0.09061446693
0.3039857684
0.06287726742
16.90257216
33.03297411
20.50524144
15933.7625
4.783542078e-22
3.827526193e-22
2.079065199e-22
1.191822021e-22
7.093165029e-23
4.355531329e-23
2.747608971e-23
1.774778225e-23
1.17062329e-23
7.865938155e-24
5.373386769e-24
3.724921239e-24
2.616084482e-24
1.858752516e-24
1.334326013e-24
9.666445209e-25
7.059629615e-25
5.192772691e-25
3.843720858e-25
2.8609368e-25
2.139777039e-25
1.607160208e-25
1.211515354e-25
9.161029182e-26
6.945206276e-26
5.2764371e-26
4.015185693e-26
3.05897792e-26
2.33211378e-26
1.778378287e-26
1.3558342e-26
1.033073896e-26
7.865031907e-27
5.983613609e-27
4.552708823e-27
3.471716493e-27
2.665368805e-27
2.077976608e-27
1.669243186e-27
1.410624794e-27
4.231399952e-26
0.1036754688
0.1058260079
0.1543882584
0.3508654081
1.76462846
30.34449945
11.59403148
32.38892156
9454.299003
2.632107005e-22
1.893615633e-22
1.151453175e-22
7.212280262e-23
4.609799255e-23
3.001306537e-23
1.988051399e-23
1.338244504e-23
9.143564556e-24
6.333364661e-24
4.441819983e-24
3.150504709e-24
2.257374697e-24
1.632205925e-24
1.189793214e-24
8.735842036e-25
6.455337056e-25
4.797205109e-25
3.582732727e-25
2.687339545e-25
2.023288273e-25
1.528201949e-25
1.157345765e-25
8.783798349e-26
6.677532471e-26
5.082007499e-26
3.869882667e-26
2.946722143e-26
2.242148222e-26
1.703484137e-26
1.291153295e-26
9.753280772e-27
7.334747399e-27
5.485459283e-27
4.076448221e-27
3.010354702e-27
2.214094425e-27
1.633442083e-27
1.229069645e-27
9.731783372e-28
4.877859683e-26
0.101194715
0.1107630502
0.2116904311
0.01809411513
9.081644388
29.62265435
2.246932452
34.492816
4494.041632
1.364810222e-22
9.374460639e-23
6.347974891e-23
4.323265867e-23
2.958754158e-23
2.039847355e-23
1.418506174e-23
9.95518644e-24
7.051404514e-24
5.039510578e-24
3.632250079e-24
2.638612473e-24
1.930647717e-24
1.421897274e-24
1.053385738e-24
7.844929699e-25
5.869705662e-25
4.409890638e-25
3.325036427e-25
2.514820824e-25
1.907013227e-25
1.449223735e-25
1.103193336e-25
8.408068059e-26
6.412844259e-26
4.891876708e-26
3.729919187e-26
2.840575042e-26
2.158828902e-26
1.635591941e-26
1.233694838e-26
9.249289497e-27
6.878515487e-27
5.06151681e-27
3.674300787e-27
2.622869884e-27
1.836407664e-27
1.262210537e-27
8.619578635e-28
6.086282693e-28
5.419274829e-26
0.084860688
0.1237255816
0.1157145047
1.152317247
16.73520306
15.7687018
4.791346771
27.73436606
1664.053915
7.493266164e-23
4.775729372e-23
3.547687579e-23
2.603095982e-23
1.896615312e-23
1.379826303e-23
1.005412533e-23
7.349977493e-24
5.395749645e-24
3.979438376e-24
2.948709606e-24
2.194964002e-24
1.640960774e-24
1.231697935e-24
9.278772396e-25
7.012889965e-25
5.31574036e-25
4.039552785e-25
3.076458085e-25
2.347274749e-25
1.793569686e-25
1.372005209e-25
1.050289439e-25
8.042574812e-26
6.157548639e-26
4.710937351e-26
3.599205304e-26
2.743810778e-26
2.085019953e-26
1.57730282e-26
1.185892504e-26
8.842047114e-27
6.518963611e-27
4.734015916e-27
3.368261669e-27
2.331124593e-27
1.554100633e-27
9.860400066e-28
5.896516659e-28
3.387115216e-28
5.821704463e-26
0.06333973216
0.09829180261
0.07116944087
5.367131801
16.76447082
4.228046884
10.41563454
17.9056082
462.0332092
4.519679779e-23
2.545766896e-23
2.032337685e-23
1.588225671e-23
1.22345109e-23
9.351744465e-24
7.120488132e-24
5.41327597e-24
4.114998783e-24
3.130486203e-24
2.384487522e-24
1.818949043e-24
1.389696243e-24
1.063361215e-24
8.148237446e-25
6.251897553e-25
4.802395164e-25
3.692552077e-25
2.841424801e-25
2.1877478e-25
1.685044232e-25
1.297977354e-25
9.996229559e-26
7.694255248e-26
5.916627314e-26
4.542886879e-26
3.48060206e-26
2.658751251e-26
2.02270035e-26
1.530381575e-26
1.149380775e-26
8.547136139e-27
6.271255973e-27
4.517916647e-27
3.173215586e-27
2.150001194e-27
1.382089981e-27
8.198946005e-28
4.27160898e-28
1.784704389e-28
6.060462203e-26
0.04225225733
0.02512061714
1.067983638
10.0693588
10.77999222
0.2204586319
13.64968468
9.572932983
89.25789667
2.985407914e-23
1.4255092e-23
1.198105833e-23
9.863572428e-24
7.979653498e-24
6.380232398e-24
5.061392252e-24
3.99375755e-24
3.139705061e-24
2.461865478e-24
1.926737146e-24
1.505821966e-24
1.175598163e-24
9.170068946e-25
7.147869123e-25
5.568128096e-25
4.335015328e-25
3.373072247e-25
2.623038547e-25
2.038465688e-25
1.58300074e-25
1.228224604e-25
9.519405657e-26
7.368245251e-26
5.693634431e-26
4.39022253e-26
3.37591165e-26
2.586749941e-26
1.972940617e-26
1.495726024e-26
1.124957135e-26
8.371995062e-27
6.142588964e-27
4.420352002e-27
3.096334068e-27
2.086761015e-27
1.32774496e-27
7.712481902e-28
3.820471295e-28
1.355266884e-28
6.121527651e-26
0.01657616933
0.08806653512
3.869172303
11.42923959
4.054713346
2.474089987
13.59748277
4.189287948
10.69038578
2.073237709e-23
8.18969767e-24
7.240076831e-24
6.243282386e-24