/*--------------------------------*- C++ -*----------------------------------*\
  =========                 |
  \\      /  F ield         | OpenFOAM: The Open Source CFD Toolbox
   \\    /   O peration     | Website:  https://openfoam.org
    \\  /    A nd           | Version:  6
     \\/     M anipulation  |
\*---------------------------------------------------------------------------*/
FoamFile
{
    version     2.0;
    format      ascii;
    class       surfaceScalarField;
    location    "0.16";
    object      alphaPhi0.phase1;
}
// * * * * * * * * * * * * * * * * * * * * * * * * * * * * * * * * * * * * * //

dimensions      [0 3 -1 0 0 0 0];

internalField   nonuniform List<scalar> 
4900
(
-3.15469076e-21
-1.15841719e-20
3.280805411e-22
-4.821773898e-21
1.260396852e-21
-1.089758102e-21
1.302954344e-21
-1.339935588e-22
1.08310081e-21
2.13249318e-22
8.01909706e-22
5.981264415e-22
8.009468451e-22
9.628608878e-25
-2.478486177e-17
3.465864117e-18
-2.384836825e-20
4.993193482e-24
-2.340918739e-20
-4.391808866e-22
-2.258585653e-20
-8.233401083e-22
-2.146913207e-20
-1.116745261e-21
-2.015906402e-20
-1.310099701e-21
-1.874591859e-20
-1.413187641e-21
-1.730084463e-20
-1.445126619e-21
-1.587441139e-20
-1.426496229e-21
-1.449947478e-20
-1.375009828e-21
-1.319548805e-20
-1.304070045e-21
-1.19726075e-20
-1.222973825e-21
-1.083493465e-20
-1.13777593e-21
-9.782809816e-21
-1.052237532e-21
-8.814319025e-21
-9.686129242e-22
-7.926234511e-21
-8.882158764e-22
-7.114583248e-21
-8.117916326e-22
-6.374986937e-21
-7.397454557e-22
-5.702868441e-21
-6.722761685e-22
-5.093582732e-21
-6.094516531e-22
-4.542505434e-21
-5.512512419e-22
-4.045096715e-21
-4.975903849e-22
-3.596949432e-21
-4.48336379e-22
-3.19382587e-21
-4.033197913e-22
-2.831685136e-21
-3.623437882e-22
-2.506702411e-21
-3.251922899e-22
-2.215280925e-21
-2.916372415e-22
-1.954057506e-21
-2.614450351e-22
-1.7199026e-21
-2.343820511e-22
-1.50991564e-21
-2.102192955e-22
-1.321416671e-21
-1.88736153e-22
-1.151935043e-21
-1.697233141e-22
-9.991959201e-22
-1.529849619e-22
-8.611052349e-22
-1.383403249e-22
-7.357336156e-22
-1.256247051e-22
-6.212996991e-22
-1.146900919e-22
-5.161531378e-22
-1.054054682e-22
-4.187575023e-22
-9.765691478e-23
-3.276731454e-22
-9.13476483e-23
-2.415398455e-22
-8.639824304e-23
-1.590583176e-22
-8.274776208e-23
-7.896707484e-23
-8.03584072e-23
-7.923480716e-23
-1.976268987e-20
-5.120477144e-20
-3.11412025e-21
-4.133372266e-20
-1.087218109e-22
-6.815100777e-21
3.48487699e-22
-8.349223635e-22
3.484189079e-22
2.354981277e-22
4.232486122e-22
1.191532754e-21
-1.537764651e-21
1.962183995e-21
-2.136962499e-17
1.407193841e-18
-2.428880266e-20
2.650990822e-24
-2.379315827e-20
-9.348437624e-22
-2.287921495e-20
-1.737322128e-21
-2.166253459e-20
-2.333484253e-21
-2.026224661e-20
-2.710465306e-21
-1.877795972e-20
-2.897570818e-21
-1.728230232e-20
-2.94089877e-21
-1.582299174e-20
-2.88593981e-21
-1.442858137e-20
-2.769571226e-21
-1.311442209e-20
-2.618398129e-21
-1.188742844e-20
-2.450153755e-21
-1.074940756e-20
-2.276000255e-21
-9.699191817e-21
-2.102673545e-21
-8.733925738e-21
-1.934115726e-21
-7.849812319e-21
-1.772582075e-21
-7.042538083e-21
-1.619334286e-21
-6.307518e-21
-1.475049151e-21
-5.640043828e-21
-1.340048684e-21
-5.035381899e-21
-1.214426174e-21
-4.488843912e-21
-1.098115567e-21
-3.995841857e-21
-9.909320028e-22
-3.551931855e-21
-8.925986359e-22
-3.15284878e-21
-8.027672604e-22
-2.79453249e-21
-7.210360481e-22
-2.473146187e-21
-6.469655641e-22
-2.185087542e-21
-5.800932714e-22
-1.926993369e-21
-5.199464107e-22
-1.695738733e-21
-4.660531012e-22
-1.488431444e-21
-4.179515989e-22
-1.302402846e-21
-3.75197744e-22
-1.135195781e-21
-3.373707274e-22
-9.845504542e-22
-3.040773606e-22
-8.483888702e-22
-2.749550706e-22
-7.247983432e-22
-2.496738457e-22
-6.120145022e-22
-2.279373578e-22
-5.084040977e-22
-2.094834664e-22
-4.124478365e-22
-1.940842949e-22
-3.22723434e-22
-1.815460514e-22
-2.37889175e-22
-1.717087428e-22
-1.56668985e-22
-1.644457979e-22
-7.784343476e-23
-1.596627937e-22
-1.572896131e-22
-6.473148569e-20
-9.981746811e-20
-2.7261522e-20
-1.321564627e-19
-1.922793712e-21
-4.980495215e-20
-1.955983431e-22
-3.195414346e-21
-2.524029242e-22
9.250751678e-23
-2.426972464e-22
1.186286081e-21
-1.438371366e-21
3.158355299e-21
-2.149972926e-17
-7.094910177e-19
-2.522112214e-20
-4.509858442e-24
-2.459525309e-20
-1.560727949e-21
-2.347531181e-20
-2.857295644e-21
-2.203966002e-20
-3.769185505e-21
-2.044958051e-20
-4.30061077e-21
-1.882151361e-20
-4.525719931e-21
-1.722752686e-20
-4.534983834e-21
-1.570675578e-20
-4.406825127e-21
-1.427749683e-20
-4.198960132e-21
-1.294623357e-20
-3.949806853e-21
-1.171330873e-20
-3.683239316e-21
-1.05761007e-20
-3.413384003e-21
-9.530645402e-21
-3.148319236e-21
-8.572398505e-21
-2.892567387e-21
-7.696568005e-21
-2.648631366e-21
-6.898254631e-21
-2.417880112e-21
-6.172518057e-21
-2.201031457e-21
-5.514421032e-21
-1.998404317e-21
-4.919070402e-21
-1.810047869e-21
-4.38165899e-21
-1.635810064e-21
-3.897506771e-21
-1.475378877e-21
-3.462098486e-21
-1.328312679e-21
-3.071115383e-21
-1.194066748e-21
-2.720459704e-21
-1.072018248e-21
-2.406271539e-21
-9.614898845e-22
-2.124938329e-21
-8.617717625e-22
-1.873097757e-21
-7.721408696e-22
-1.647635015e-21
-6.918778088e-22
-1.445675489e-21
-6.202806374e-22
-1.264573867e-21
-5.56675885e-22
-1.101900604e-21
-5.00426972e-22
-9.554265165e-22
-4.509403438e-22
-8.231061657e-22
-4.076696784e-22
-7.030605463e-22
-3.701185281e-22
-5.935594729e-22
-3.378417423e-22
-4.930039583e-22
-3.104459802e-22
-3.999087939e-22
-2.875895851e-22
-3.128854932e-22
-2.689820423e-22
-2.306257583e-22
-2.543831691e-22
-1.5188563e-22
-2.436020534e-22
-7.546993071e-23
-2.364954804e-22
-2.329654576e-22
-1.221388693e-19
-1.152580734e-19
-9.305204301e-20
-2.314067003e-19
-1.746857445e-20
-1.657175226e-19
-6.979555467e-22
-2.410255189e-20
-2.46574699e-22
-3.681862423e-22
-1.750211337e-22
4.476151821e-22
8.059096801e-22
1.436104253e-21
-8.99887811e-19
-1.86593162e-18
-2.677505469e-20
-1.112741685e-23
-2.589119951e-20
-2.444598029e-21
-2.438721942e-20
-4.361307386e-21
-2.257145123e-20
-5.585002281e-21
-2.067513819e-20
-6.196988658e-21
-1.883116727e-20
-6.369771711e-21
-1.709965557e-20
-6.266592262e-21
-1.549908247e-20
-6.007510668e-21
-1.402846292e-20
-5.669707616e-21
-1.267973685e-20
-5.298676155e-21
-1.144349405e-20
-4.919640387e-21
-1.031105877e-20
-4.54599233e-21
-9.274906265e-21
-4.184659271e-21
-8.32846949e-21
-3.839205864e-21
-7.465820466e-21
-3.511495923e-21
-6.68140767e-21
-3.202521914e-21
-5.969891237e-21
-2.91278999e-21
-5.326063881e-21
-2.642486473e-21
-4.74483108e-21
-2.391547755e-21
-4.221225627e-21
-2.159694457e-21
-3.750437873e-21
-1.946456984e-21
-3.32784946e-21
-1.751202396e-21
-2.94906351e-21
-1.573164482e-21
-2.609927801e-21
-1.411475739e-21
-2.30654981e-21
-1.265199162e-21
-2.035303845e-21
-1.133358015e-21
-1.79283119e-21
-1.014962301e-21
-1.57603448e-21
-9.090312669e-22
-1.382067556e-21
-8.14611753e-22
-1.208321988e-21
-7.307925579e-22
-1.052411246e-21
-6.567151957e-22
-9.121533698e-22
-5.915815367e-22
-7.855527904e-22
-5.346588655e-22
-6.707817944e-22
-4.85282875e-22
-5.661620028e-22
-4.428590774e-22
-4.701461109e-22
-4.068630559e-22
-3.813000503e-22
-3.768399156e-22
-2.982856655e-22
-3.524032272e-22
-2.198439265e-22
-3.332336809e-22
-1.447785672e-22
-3.190775978e-22
-7.193966206e-23
-3.097454177e-22
-3.051105389e-22
-1.598751968e-19
-9.232878588e-20
-1.72417327e-19
-3.128833194e-19
-8.644850407e-20
-3.45387e-19
-5.37700778e-21
-1.437472752e-19
-2.954084808e-22
-6.54943885e-21
-7.695407534e-22
1.120118221e-22
-1.378382532e-21
1.235715443e-21
2.751162923e-18
-4.780629751e-18
-2.920628036e-20
-1.925598913e-23
-2.780704369e-20
-3.843849589e-21
-2.561131054e-20
-6.557072142e-21
-2.31842903e-20
-8.012071038e-21
-2.084873133e-20
-8.532612369e-21
-1.87285852e-20
-8.489998587e-21
-1.684095889e-20
-8.15431517e-21
-1.516150684e-20
-7.687074996e-21
-1.365755792e-20
-7.173784297e-21
-1.230076848e-20
-6.655608634e-21
-1.106988104e-20
-6.150685885e-21
-9.949743881e-21
-5.66630231e-21
-8.929462454e-21
-5.205127986e-21
-8.000764727e-21
-4.768105032e-21
-7.156849151e-21
-4.355626755e-21
-6.391676801e-21
-3.967922978e-21
-5.699587494e-21
-3.605121092e-21
-5.075123835e-21
-3.267204611e-21
-4.512975486e-21
-2.953962855e-21
-4.007985028e-21
-2.664963509e-21
-3.555179482e-21
-2.39955252e-21
-3.149807231e-21
-2.156875577e-21
-2.787370098e-21
-1.935913014e-21
-2.463646352e-21
-1.735520871e-21
-2.174703721e-21
-1.554472671e-21
-1.916903234e-21
-1.391498371e-21
-1.686895396e-21
-1.245318488e-21
-1.481610413e-21
-1.114672559e-21
-1.298244071e-21
-9.983418405e-22
-1.134240637e-21
-8.951666421e-22
-9.872739245e-22
-8.040589269e-22
-8.55227378e-22
-7.240109302e-22
-7.361738281e-22
-6.541005464e-22
-6.283553752e-22
-5.934941956e-22
-5.301637071e-22
-5.414477998e-22
-4.401210387e-22
-4.97306413e-22
-3.568617655e-22
-4.605029577e-22
-2.791148509e-22
-4.305564349e-22
-2.056868957e-22
-4.070698957e-22
-1.354457542e-22
-3.897284051e-22
-6.730446991e-23
-3.782972114e-22
-3.726204e-22
-1.483123212e-19
-5.259203688e-20
-2.921028221e-19
-2.936571705e-19
-2.560038991e-19
-5.352806003e-19
-6.195911269e-20
-4.912803403e-19
-2.54368965e-21
-1.276731324e-19
-5.203333918e-22
-2.615539221e-21
-1.137420733e-21
1.078659068e-21
-1.848564718e-18
-1.237257228e-17
-3.302661976e-20
-2.929444286e-23
-3.051954424e-20
-6.350939979e-21
-2.706789943e-20
-1.000874855e-20
-2.370667002e-20
-1.137334897e-20
-2.080746011e-20
-1.143188701e-20
-1.839370712e-20
-1.090383232e-20
-1.637414639e-20
-1.017397249e-20
-1.464842285e-20
-9.412910802e-21
-1.313947391e-20
-8.682860998e-21
-1.179588298e-20
-7.999342592e-21
-1.058551145e-20
-7.361215462e-21
-9.488574743e-21
-6.763411833e-21
-8.492441818e-21
-6.201448194e-21
-7.588287857e-21
-5.672460429e-21
-6.769146199e-21
-5.174983665e-21
-6.02887497e-21
-4.708422919e-21
-5.361670062e-21
-4.272567794e-21
-4.761879993e-21
-3.86724916e-21
-4.223972925e-21
-3.492136676e-21
-3.742569809e-21
-3.14664522e-21
-3.312497472e-21
-2.829914852e-21
-2.928838971e-21
-2.540835013e-21
-2.586971839e-21
-2.278091549e-21
-2.282591815e-21
-2.040222287e-21
-2.011723033e-21
-1.825672337e-21
-1.770717056e-21
-1.632844223e-21
-1.556243378e-21
-1.46014052e-21
-1.3652739e-21
-1.305998352e-21
-1.195063435e-21
-1.168916057e-21
-1.043127885e-21
-1.047472848e-21
-9.072213186e-22
-9.403425173e-22
-7.853128273e-22
-8.463022731e-22
-6.755637576e-22
-7.642377509e-22
-5.763057051e-22
-6.931451187e-22
-4.860194851e-22
-6.321310755e-22
-4.033151786e-22
-5.80411408e-22
-3.269132581e-22
-5.373086449e-22
-2.556267371e-22
-5.022492441e-22
-1.883442314e-22
-4.747606529e-22
-1.24013781e-22
-4.544685103e-22
-6.162727054e-23
-4.410942185e-22
-4.344530761e-22
-1.073703785e-19
-1.343457523e-20
-3.336664113e-19
-1.933397163e-19
-4.561120532e-19
-5.203572187e-19
-3.18063788e-19
-6.709163831e-19
-2.240056754e-20
-5.111331588e-19
-4.555182177e-21
-5.786770699e-20
8.902753879e-21
-1.365164705e-20
-4.971066992e-18
-1.619880019e-17
-3.933767846e-20
-3.639236728e-23
-3.417915136e-20
-1.150948198e-20
-2.843736472e-20
-1.57505668e-20
-2.37687794e-20
-1.604198279e-20
-2.028132434e-20
-1.491940681e-20
-1.766470204e-20
-1.352053535e-20
-1.56133987e-20
-1.222537242e-20
-1.391845314e-20
-1.110796863e-20
-1.245595161e-20
-1.014549029e-20
-1.115773175e-20
-9.29770548e-21
-9.987686243e-21
-8.531419022e-21
-8.926597353e-21
-7.824673543e-21
-7.96344712e-21
-7.164785717e-21
-7.090808392e-21
-6.545300603e-21
-6.302584596e-21
-5.963422729e-21
-5.593019139e-21
-5.418217104e-21
-4.956349877e-21
-4.90947887e-21
-4.386764659e-21
-4.43708888e-21
-3.878477224e-21
-4.000690889e-21
-3.42583393e-21
-3.599567137e-21
-3.023411092e-21
-3.232627714e-21
-2.666088218e-21
-2.898458855e-21
-2.349094819e-21
-2.595396388e-21
-2.06803389e-21
-2.321604643e-21
-1.818886941e-21
-2.075150207e-21
-1.598005545e-21
-1.854065534e-21
-1.402093706e-21
-1.656400755e-21
-1.228184505e-21
-1.480263911e-21
-1.073613598e-21
-1.323850757e-21
-9.35991442e-22
-1.185465703e-21
-8.131755039e-22
-1.063535523e-21
-7.032432868e-22
-9.56617385e-22
-6.044666594e-22
-8.634025562e-22
-5.152877412e-22
-7.827169498e-22
-4.342964305e-22
-7.135194838e-22
-3.602095479e-22
-6.548990198e-22
-2.918514946e-22
-6.060705039e-22
-2.28136274e-22
-5.663707902e-22
-1.680506959e-22
-5.352545179e-22
-1.106385657e-22
-5.12290329e-22
-5.498566817e-23
-4.97157645e-22
-4.896441666e-22
-3.355719934e-20
-6.17420223e-22
-2.689964569e-19
-4.623426063e-20
-5.04820916e-19
-3.100326073e-19
-4.800888529e-19
-5.19579754e-19
-1.313565325e-19
-6.738848534e-19
-4.026498767e-20
-1.982533712e-19
8.129876843e-19
-1.169019322e-18
3.638853473e-18
-2.770172585e-17
-5.077157002e-20
-5.010146534e-22
-3.843616085e-20
-2.384490607e-20
-2.874133287e-20
-2.544542637e-20
-2.265188174e-20
-2.213148243e-20
-1.888436498e-20
-1.86869883e-20
-1.636992063e-20
-1.603506043e-20
-1.449588808e-20
-1.409950154e-20
-1.295577798e-20
-1.264819098e-20
-1.160800335e-20
-1.149339266e-20
-1.039133699e-20
-1.051451486e-20
-9.280878255e-21
-9.642035812e-21
-8.266677825e-21
-8.839046791e-21
-7.343948402e-21
-8.087702431e-21
-6.508926096e-21
-7.380524361e-21
-5.757378122e-21
-6.715185976e-21
-5.084280435e-21
-6.091543531e-21
-4.483958197e-21
-5.510042936e-21
-3.950363145e-21
-4.970938452e-21
-3.477348072e-21
-4.47397276e-21
-3.058887475e-21
-4.018306381e-21
-2.689233939e-21
-3.6025713e-21
-2.363016593e-21
-3.224977197e-21
-2.075293423e-21
-2.883431028e-21
-1.821569628e-21
-2.575649898e-21
-1.597792527e-21
-2.299258265e-21
-1.400331313e-21
-2.051866698e-21
-1.225947846e-21
-1.831132654e-21
-1.071762876e-21
-1.634805276e-21
-9.352206793e-22
-1.460756787e-21
-8.140540493e-22
-1.307003071e-21
-7.062508238e-22
-1.171715856e-21
-6.100225882e-22
-1.053228556e-21
-5.237758481e-22
-9.500375148e-22
-4.460857197e-22
-8.608000315e-22
-3.756720413e-22
-7.843302997e-22
-3.113777163e-22
-7.195941129e-22
-2.521490541e-22
-6.657030099e-22
-1.970178449e-22
-6.219083617e-22
-1.45084904e-22
-5.875957812e-22
-9.550482023e-23
-5.622801354e-22
-4.747166113e-23
-5.456013665e-22
-5.373212649e-22
-1.829069646e-21
1.422721438e-24
-6.041605853e-20
-1.830249505e-21
-2.53256199e-19
-4.893917588e-20
-4.187607895e-19
-1.388100562e-19
-2.849544506e-19
-4.879835988e-19
1.030297816e-17
-1.084129315e-17
5.160791122e-16
-4.922643173e-16
4.659381462e-18
-1.233175434e-13
-7.413036473e-20
-6.477662469e-20
-4.011954442e-20
-5.785574131e-20
-2.545138918e-20
-4.011361321e-20
-1.921210323e-20
-2.837081686e-20
-1.623210864e-20
-2.166704761e-20
-1.443322516e-20
-1.783402462e-20
-1.304364966e-20
-1.548917359e-20
-1.180038174e-20
-1.389157114e-20
-1.062878042e-20
-1.266512171e-20
-9.518674695e-21
-1.162476359e-20
-8.477800735e-21
-1.068306781e-20
-7.515296509e-21
-9.801723823e-21
-6.636758977e-21
-8.966427245e-21
-5.84358718e-21
-8.173897604e-21
-5.133738037e-21
-7.425250392e-21
-4.502781206e-21
-6.722729103e-21
-3.944852495e-21
-6.06821348e-21
-3.453393308e-21
-5.462652168e-21
-3.021674892e-21
-4.905957987e-21
-2.643143471e-21
-4.397116465e-21
-2.311629393e-21
-3.934375447e-21
-2.021459026e-21
-3.51544858e-21
-1.767500427e-21
-3.13770112e-21
-1.545166057e-21
-2.798305754e-21
-1.350389254e-21
-2.494366053e-21
-1.179586019e-21
-2.223009914e-21
-1.029609833e-21
-1.981457303e-21
-8.97704469e-22
-1.767067068e-21
-7.814578235e-22
-1.577367299e-21
-6.787585018e-22
-1.410073166e-21
-5.877560066e-22
-1.263095493e-21
-5.068248337e-22
-1.134542699e-21
-4.345324359e-22
-1.022718166e-21
-3.696108169e-22
-9.261146387e-22
-3.109314121e-22
-8.434068762e-22
-2.574828701e-22
-7.734434569e-22
-2.083513338e-22
-7.152384228e-22
-1.627028386e-22
-6.679632513e-22
-1.197674578e-22
-6.309395156e-22
-7.882486017e-23
-6.036324861e-22
-3.919096679e-23
-5.856458521e-22
-5.767176819e-22
3.580240776e-25
1.319623085e-28
-1.482543605e-21
3.539130148e-23
-2.206442362e-20
-2.827045391e-21
-5.333726337e-20
-2.212863701e-20
6.811047978e-18
-7.313452191e-18
1.19419746e-15
-1.198459984e-15
1.377652444e-13
-1.37099394e-13
-3.071002705e-18
-1.262726957e-11
-6.757653277e-20
-2.76049165e-19
-2.24658639e-20
-1.02966425e-19
-1.370494308e-20
-4.887456561e-20
-1.249777442e-20
-2.9578034e-20
-1.239224713e-20
-2.177263959e-20
-1.208469098e-20
-1.814166146e-20
-1.144417363e-20
-1.612978746e-20
-1.057300948e-20
-1.47628475e-20
-9.587986183e-21
-1.365027271e-20
-8.57678785e-21
-1.26361049e-20
-7.596385493e-21
-1.166362818e-20
-6.679983696e-21
-1.07182984e-20
-5.84423503e-21
-9.802363176e-21
-5.094951271e-21
-8.923382795e-21
-4.431226213e-21
-8.089190712e-21
-3.848270379e-21
-7.305913671e-21
-3.339290788e-21
-6.577434902e-21
-2.896694087e-21
-5.905503398e-21
-2.512824634e-21
-5.290094256e-21
-2.180391041e-21
-4.729828729e-21
-1.892689367e-21
-4.222367202e-21
-1.64369744e-21
-3.764741538e-21
-1.428090588e-21
-3.353619482e-21
-1.241212002e-21
-2.985505844e-21
-1.079019218e-21
-2.656889842e-21
-9.380202052e-22
-2.36434893e-21
-8.152072408e-22
-2.104618755e-21
-7.07993277e-22
-1.874637486e-21
-6.141532449e-22
-1.671571224e-21
-5.317713717e-22
-1.492825839e-21
-4.591947299e-22
-1.336049305e-21
-3.94992764e-22
-1.199127664e-21
-3.379222824e-22
-1.08017693e-21
-2.86897297e-22
-9.775326409e-22
-2.409630629e-22
-8.897383105e-22
-1.99273693e-22
-8.155336569e-22
-1.610727699e-22
-7.538432503e-22
-1.25676429e-22
-7.037660136e-22
-9.245844664e-23
-6.64565878e-22
-6.083691635e-23
-6.356637955e-22
-3.026214509e-23
-6.166312411e-22
-6.071852876e-22
1.317429648e-28
2.60180494e-32
4.130939509e-23
7.168848937e-26
8.999274137e-23
-1.929837104e-23
-1.928116386e-20
-1.136497788e-21
-1.873064442e-18
-5.461485802e-18
1.192705641e-15
-2.393960746e-15
2.86499829e-13
-4.225495788e-13
-1.021860653e-18
-3.766631758e-11
1.055098677e-19
-4.049414217e-20
3.204567987e-20
-2.950225183e-20
5.708889496e-21
-2.25378068e-20
-4.655590974e-21
-1.921360197e-20
-8.748432089e-21
-1.767986313e-20
-1.006792631e-20
-1.682224789e-20
-1.007527351e-20
-1.612253674e-20
-9.459651886e-21
-1.537858129e-20
-8.573533439e-21
-1.453651881e-20
-7.604237766e-21
-1.360554351e-20
-6.651066643e-21
-1.261695728e-20
-5.764086121e-21
-1.160545168e-20
-4.965293749e-21
-1.060134278e-20
-4.260789797e-21
-9.628088153e-21
-3.647968585e-21
-8.702227166e-21
-3.119800361e-21
-7.834310615e-21
-2.667359169e-21
-7.030117914e-21
-2.281278061e-21
-6.291839029e-21
-1.952547418e-21
-5.619091712e-21
-1.672914681e-21
-5.009740136e-21
-1.435047048e-21
-4.46052492e-21
-1.232557913e-21
-3.967531712e-21
-1.0599594e-21
-3.526529514e-21
-9.125788897e-22
-3.133207872e-21
-7.864619858e-22
-2.783337767e-21
-6.782747226e-22
-2.472876213e-21
-5.852118021e-22
-2.198030182e-21
-5.049140448e-22
-1.955291716e-21
-4.353960996e-22
-1.741453083e-21
-3.749842676e-22
-1.553608493e-21
-3.222636687e-22
-1.389147096e-21
-2.760337067e-22
-1.245740648e-21
-2.352707106e-22
-1.121328231e-21
-1.990966647e-22
-1.014099727e-21
-1.667530316e-22
-9.224791668e-22
-1.375787806e-22
-8.451087607e-22
-1.109918525e-22
-7.80834105e-22
-8.647339789e-23
-7.286909116e-22
-6.355422129e-23
-6.878934562e-22
-4.180294725e-23
-6.578248698e-22
-2.081548831e-23
-6.380293389e-22
-6.282062448e-22
2.60170946e-32
9.548019374e-37
7.310577215e-26
3.320209555e-30
6.310121485e-23
-1.241777496e-26
-1.073037199e-21
-1.074508647e-25
-3.936803017e-18
-1.52578614e-18
-1.116577176e-15
-1.281361763e-15
-9.487898197e-14
-3.288084859e-13
-3.903128298e-19
-4.06080673e-11
1.161968227e-19
1.75476819e-19
3.901401724e-20
4.768053864e-20
9.043214294e-21
7.432964606e-21
-3.116013084e-21
-7.054423012e-21
-7.888136426e-21
-1.29078044e-20
-9.367171601e-21
-1.534329331e-20
-9.331035468e-21
-1.61587693e-20
-8.617629521e-21
-1.609209934e-20
-7.642711865e-21
-1.551156407e-20
-6.615823603e-21
-1.463257465e-20
-5.639711896e-21
-1.359322691e-20
-4.760094128e-21
-1.248524215e-20
-3.992121606e-21
-1.13695025e-20
-3.33498145e-21
-1.028542968e-20
-2.780080869e-21
-9.25734296e-21
-2.315618576e-21
-8.299001603e-21
-1.929078355e-21
-7.416899935e-21
-1.608520056e-21
-6.612651837e-21
-1.343179539e-21
-5.884699031e-21
-1.12367989e-21
-5.229518451e-21
-9.42032684e-22
-4.642462208e-21
-7.915341607e-22
-4.118331275e-21
-6.666166117e-22
-3.651758587e-21
-5.626885681e-22
-3.237457439e-21
-4.759814654e-22
-2.870375898e-21
-4.034111511e-22
-2.545786557e-21
-3.424572963e-22
-2.259332555e-21
-2.910608812e-22
-2.007044618e-21
-2.475384541e-22
-1.785339438e-21
-2.105112288e-22
-1.591006555e-21
-1.788469142e-22
-1.42118862e-21
-1.516122384e-22
-1.273358362e-21
-1.280343256e-22
-1.145294466e-21
-1.074693152e-22
-1.035057794e-21
-8.937685275e-23
-9.409688699e-22
-7.329930285e-23
-8.615871807e-22
-5.884472997e-23
-7.956926218e-22
-4.567285768e-23
-7.422692443e-22
-3.348335556e-23
-7.004913766e-22
-2.200591307e-23
-6.697121291e-22
-1.099164745e-23
-6.494542597e-22
-6.39403367e-22
9.547937698e-37
8.167591748e-42
2.518584516e-29
-2.638736181e-47
1.837522037e-24
6.962022825e-28
1.793278168e-24
-2.333370779e-26
-1.274500382e-18
-2.406430856e-19
-5.511445848e-16
-7.314086961e-16
-5.279493402e-14
-2.765339042e-13
8.833249162e-19
-3.737487389e-11
-1.203749715e-20
6.83047264e-20
-1.544883354e-21
3.718791e-20
-5.530429912e-21
1.141847965e-20
-8.995576212e-21
-3.589325082e-21
-1.033261909e-20
-1.157082608e-20
-1.018632839e-20
-1.548966454e-20
-9.266199905e-21
-1.707899415e-20
-8.038166962e-21
-1.732024432e-20
-6.764410423e-21
-1.678544814e-20
-5.576933049e-21
-1.582019484e-20
-4.532030739e-21
-1.463828709e-20
-3.644551124e-21
-1.337289442e-20
-2.908170111e-21
-1.210607066e-20
-2.306963366e-21
-1.088683775e-20
-1.821771886e-21
-9.742749615e-21
-1.433524917e-21
-8.687477235e-21
-1.124822428e-21
-7.725844197e-21
-8.805496082e-22
-6.857179144e-21
-6.87975702e-22
-6.077539722e-21
-5.365976395e-22
-5.381175166e-21
-4.178749058e-22
-4.761475015e-21
-3.249350316e-22
-4.211572182e-21
-2.522901986e-22
-3.72471494e-21
-1.955833849e-22
-3.294485776e-21
-1.513703358e-22
-2.914919978e-21
-1.169372996e-22
-2.580559627e-21
-9.015143938e-23
-2.286466939e-21
-6.933964672e-23
-2.028212904e-21
-5.319128217e-23
-1.801851739e-21
-4.068065494e-23
-1.603888029e-21
-3.100554776e-23
-1.431240946e-21
-2.353864527e-23
-1.281208314e-21
-1.778925524e-23
-1.15143219e-21
-1.337318729e-23
-1.039866931e-21
-9.989062087e-24
-9.447502477e-22
-7.399663386e-24
-8.645774616e-22
-5.417223402e-24
-7.980790176e-22
-3.891755049e-24
-7.442011848e-22
-2.701721484e-24
-7.020898402e-22
-1.746471424e-24
-6.710772075e-22
-9.399741741e-25
-6.506714236e-22
-6.405488191e-22
8.167416701e-42
1.750467067e-46
8.185147826e-42
9.028972017e-46
3.696396761e-25
6.250263165e-27
3.560838647e-25
1.481489984e-26
-2.406427444e-19
1.487220074e-26
-4.069311205e-16
-3.242593505e-16
-4.552247054e-14
-2.314160289e-13
2.899181156e-18
-3.718835931e-11
-4.347210098e-20
3.49756594e-20
-2.729043309e-20
2.100622728e-20
-2.055697529e-20
4.684990382e-21
-1.699193832e-20
-7.154410361e-21
-1.426013609e-20
-1.43026928e-20
-1.178056616e-20
-1.796931491e-20
-9.510308322e-21
-1.934934827e-20
-7.50509672e-21
-1.932556787e-20
-5.800224664e-21
-1.849044764e-20
-4.395690165e-21
-1.722487208e-20
-3.267047719e-21
-1.576708732e-20
-2.37797209e-21
-1.426214263e-20
-1.689074725e-21
-1.279515511e-20
-1.162943425e-21
-1.141317033e-20
-7.665235172e-22
-1.013938465e-20
-4.7188845e-22
-8.982340924e-21
-2.561376127e-22
-7.941836773e-21
-1.00881396e-22
-7.012689819e-21
8.421934133e-24
-6.187109814e-21
8.313686769e-23
-5.456168732e-21
1.320617014e-22
-4.810689906e-21
1.619543106e-22
-4.241765813e-21
1.779687993e-22
-3.741040941e-21
1.840097113e-22
-3.300848206e-21
1.83014711e-22
-2.914256005e-21
1.771775386e-22
-2.575062487e-21
1.681223293e-22
-2.277760255e-21
1.570389992e-22
-2.01748607e-21
1.447878354e-22
-1.789964516e-21
1.31979942e-22
-1.591450987e-21
1.190388769e-22
-1.418677105e-21
1.06247709e-22
-1.268800201e-21
9.378481638e-23
-1.139357637e-21
8.175102098e-23
-1.028226211e-21
7.019007301e-23
-9.33586559e-22
5.910405017e-23
-8.538923277e-22
4.846488082e-23
-7.87843811e-22
3.822292908e-23
-7.343657121e-22
2.83133709e-23
-6.925887187e-22
1.866093113e-23
-6.618346028e-22
9.183433334e-24
-6.416045991e-22
-6.315708646e-22
2.260156922e-44
3.086497466e-46
5.178567617e-44
1.747581034e-45
1.044332872e-25
2.586437281e-27
1.063747295e-25
3.488146147e-26
-5.743270685e-27
-4.353755736e-26
-2.414805754e-16
-8.307942647e-17
-5.968557858e-14
-1.719672732e-13
3.515040368e-18
-3.677656607e-11
-5.828313529e-20
1.998116481e-20
-4.358213774e-20
6.30521493e-21
-3.239526976e-20
-6.501909017e-21
-2.414626359e-20
-1.540346477e-20
-1.793273653e-20
-2.051628424e-20
-1.316501509e-20
-2.273711669e-20
-9.489490605e-21
-2.302496892e-20
-6.67188062e-21
-2.21432897e-20
-4.535839905e-21
-2.06266157e-20
-2.938630272e-21
-1.882222435e-20
-1.762528304e-21
-1.694334699e-20
-9.11219575e-22
-1.511362385e-20
-3.072057547e-22
-1.339935594e-20
1.107996624e-22
-1.183137695e-20
3.905213148e-22
-1.041932137e-20
5.686416847e-22
-9.160689869e-21
6.730483486e-22
-8.046485135e-21
7.247432918e-22
-7.064639185e-21
7.394089329e-22
-6.202042187e-21
7.286602582e-22
-5.445698666e-21
7.010275934e-22
-4.783347278e-21
6.627175354e-22
-4.20375676e-21
6.181962065e-22
-3.69683111e-21
5.706329324e-22
-3.253606438e-21
5.222357753e-22
-2.866189867e-21
4.745040946e-22
-2.527670832e-21
4.284178972e-22
-2.232022577e-21
3.845792818e-22
-1.974003947e-21
3.433177101e-22
-1.749066882e-21
3.047680406e-22
-1.553272167e-21
2.689280977e-22
-1.383214386e-21
2.357008912e-22
-1.23595605e-21
2.049253409e-22
-1.108970427e-21
1.763984067e-22
-1.000092354e-21
1.498908043e-22
-9.074762172e-22
1.251579445e-22
-8.295603584e-22
1.019473272e-22
-7.650371579e-22
8.000331424e-23
-7.128281799e-22
5.906998116e-23
-6.720638241e-22
3.889257436e-23
-6.420670328e-22
1.921798065e-23
-6.223406804e-22
-6.125583612e-22
6.836908725e-45
1.067791582e-47
3.563896326e-36
2.03947873e-37
4.763020409e-27
1.966020003e-29
2.679543409e-26
2.277453148e-27
-2.384280435e-26
-2.55477574e-26
-8.307942678e-17
7.065976115e-25
-6.630552464e-14
-1.057422763e-13
-9.4244275e-18
-3.639715945e-11
-7.321668196e-20
5.536975605e-21
-5.638081234e-20
-1.053066946e-20
-4.129739801e-20
-2.158535471e-20
-2.926356409e-20
-2.743734683e-20
-2.015836611e-20
-2.962154648e-20
-1.345668709e-20
-2.94388759e-20
-8.610485815e-21
-2.787126622e-20
-5.156943971e-21
-2.559694325e-20
-2.732515161e-21
-2.305117172e-20
-1.06037128e-21
-2.049451075e-20
6.686330945e-23
-1.807073917e-20
8.028942183e-22
-1.584982717e-20
1.260725136e-21
-1.385737379e-20
1.522867817e-21
-1.209372077e-20
1.649197881e-21
-1.054586645e-20
1.682906824e-21
-9.194627332e-21
1.654959904e-21
-8.018779866e-21
1.587405314e-21
-6.997338977e-21
1.495813799e-21
-6.110717368e-21
1.391067833e-21
-5.341231278e-21
1.280668617e-21
-4.673238073e-21
1.169688025e-21
-4.09307715e-21
1.06146036e-21
-3.588914924e-21
9.5808407e-22
-3.150551638e-21
8.607849549e-22
-2.769221756e-21
7.701785648e-22
-2.437404456e-21
6.864592747e-22
-2.148651796e-21
6.095360494e-22
-1.897437205e-21
5.391294564e-22
-1.679024219e-21
4.748405133e-22
-1.489354068e-21
4.161990715e-22
-1.324950163e-21
3.626973422e-22
-1.182837371e-21
3.13812645e-22
-1.060474066e-21
2.690223534e-22
-9.556951348e-22
2.278132027e-22
-8.666643235e-22
1.896865384e-22
-7.91834581e-22
1.541606542e-22
-7.299152347e-22
1.20771056e-22
-6.79845059e-22
8.906925869e-23
-6.407704619e-22
5.862055913e-23
-6.120281666e-22
2.900110858e-23
-5.931319014e-22
-5.837627256e-22
3.289574658e-46
2.109628442e-49
2.067116157e-36
7.400028004e-38
2.156313387e-29
1.055488798e-32
1.25747221e-27
2.254827204e-29
-1.762449766e-26
-9.122704559e-27
-9.335851195e-25
-4.288524286e-24
-6.021320193e-14
-4.552907447e-14
-3.572446187e-17
-3.60241045e-11
-9.098178892e-20
-1.610182286e-20
-6.744323653e-20
-3.406923659e-20
-4.715706019e-20
-4.187156231e-20
-3.145427223e-20
-4.314018279e-20
-1.998061071e-20
-4.109527209e-20
-1.189247315e-20
-3.75270935e-20
-6.338342341e-21
-3.342549288e-20
-2.612477194e-21
-2.932291993e-20
-1.765741855e-22
-2.548720179e-20
1.363049874e-21
-2.203427719e-20
2.28764706e-21
-1.899549384e-20
2.795345804e-21
-1.635769822e-20
3.024443162e-21
-1.408665799e-20
3.070818104e-21
-1.214029678e-20
3.000543173e-21
-1.047580646e-20
2.858859274e-21
-9.053171894e-21
2.676498785e-21
-7.836660975e-21
2.474115389e-21
-6.795209917e-21
2.265378144e-21
-5.90224678e-21
2.059129376e-21
-5.135261053e-21
1.860888738e-21
-4.475287416e-21
1.673901273e-21
-3.90639064e-21
1.499867493e-21
-3.415192601e-21
1.339451571e-21
-2.990457185e-21
1.192634508e-21
-2.622735679e-21
1.058958868e-21
-2.304068814e-21
9.376975561e-22
-2.027738979e-21
8.279693365e-22
-1.788065456e-21
7.288169961e-22
-1.580235796e-21
6.392592985e-22
-1.400167202e-21
5.583245755e-22
-1.244392647e-21
4.850714752e-22
-1.109967311e-21
4.186007604e-22
-9.943916783e-22
3.58060902e-22
-8.955483399e-22
3.026494002e-22
-8.116500696e-22
2.516111922e-22
-7.411972513e-22
2.042350989e-22
-6.829430937e-22
1.598489703e-22
-6.358653992e-22
1.178139859e-22
-5.991439041e-22
7.751841938e-23
-5.72142425e-22
3.837107413e-23
-5.543952194e-22
-5.455971178e-22
1.473015727e-48
1.079491386e-52
4.888952965e-37
6.592722687e-39
9.440635944e-33
7.292312625e-36
2.427584652e-29
2.004565326e-31
-5.193324971e-27
-1.988629005e-27
-3.593972865e-24
-3.935249e-24
-3.851459928e-14
-7.014475213e-15
-4.000705978e-17
-3.565286923e-11
-1.111311498e-19
-5.99737137e-20
-7.527451103e-20
-6.992589007e-20
-4.844180775e-20
-6.870429672e-20
-2.941833071e-20
-6.216370763e-20
-1.641739288e-20
-5.40962738e-20
-7.793542005e-21
-4.615102417e-20
-2.237112928e-21
-3.898201759e-20
1.222658683e-21
-3.278280289e-20
3.276192238e-21
-2.754086224e-20
4.401898245e-21
-2.316012544e-20
4.925613484e-21
-1.951936642e-20
5.066596275e-21
-1.649885319e-20
4.971018389e-21
-1.399126684e-20
4.735508529e-21
-1.190498789e-20
4.42335645e-21
-1.016386924e-20
4.075525572e-21
-8.705569411e-21
3.718082761e-21
-7.479459706e-21
3.36719113e-21
-6.444572574e-21
3.032458742e-21
-5.567781006e-21
2.719182726e-21
-4.822263541e-21
2.429852435e-21
-4.186247071e-21
2.165155518e-21
-3.641994649e-21
1.924650174e-21
-3.174998684e-21
1.70721289e-21
-2.773341344e-21
1.511334975e-21
-2.427188728e-21
1.335317118e-21