/*--------------------------------*- C++ -*----------------------------------*\
  =========                 |
  \\      /  F ield         | OpenFOAM: The Open Source CFD Toolbox
   \\    /   O peration     | Website:  https://openfoam.org
    \\  /    A nd           | Version:  6
     \\/     M anipulation  |
\*---------------------------------------------------------------------------*/
FoamFile
{
    version     2.0;
    format      ascii;
    class       volVectorField;
    location    "0.16";
    object      gradT;
}
// * * * * * * * * * * * * * * * * * * * * * * * * * * * * * * * * * * * * * //

dimensions      [0 -1 0 1 0 0 0];

internalField   nonuniform List<vector> 
2500
(
(0 -1832.820489 38606.14135)
(0 -4650.726173 34588.29898)
(0 -5231.453238 27703.86592)
(0 -4234.218573 20166.9945)
(0 -3237.837897 13689.49781)
(0 -2601.870181 8465.090668)
(0 -2249.010563 4103.128317)
(0 -1090.764488 200.2401364)
(0 -35.01766556 103.6936896)
(0 -14.32403853 70.22168455)
(0 -9.677091337 47.13435369)
(0 -6.553835163 31.25308339)
(0 -4.40093598 20.4223575)
(0 -2.917519688 13.1224854)
(0 -1.904346516 8.27267438)
(0 -1.220976878 5.105225277)
(0 -0.7670966674 3.07740905)
(0 -0.4711155922 1.808451852)
(0 -0.2821967346 1.034306686)
(0 -0.164531039 0.5749304014)
(0 -0.09321451763 0.3102715206)
(0 -0.05124874342 0.1624396275)
(0 -0.02731630715 0.0824594117)
(0 -0.01410626624 0.04057495265)
(0 -0.00705480161 0.01935075991)
(0 -0.003416420854 0.008944991348)
(0 -0.001602079152 0.004008456603)
(0 -0.0007276127837 0.001741836059)
(0 -0.0003201478197 0.000734211688)
(0 -0.0001365204412 0.0003003270135)
(0 -5.644938139e-05 0.0001192660977)
(0 -2.264486116e-05 4.600113587e-05)
(0 -8.812860185e-06 1.724177916e-05)
(0 -3.331098237e-06 6.285125641e-06)
(0 -1.224715527e-06 2.228684856e-06)
(0 -4.357043366e-07 7.689176866e-07)
(0 -1.479954788e-07 2.597567705e-07)
(0 -5.105726377e-08 9.091486967e-08)
(0 -2.291694696e-08 3.01637844e-08)
(0 -1.214080558e-08 4.046935192e-09)
(0 -4.376336894e-09 -8.752673788e-09)
(0 0 -1.30819533e-08)
(0 -4.705738596e-11 -1.327018284e-08)
(0 3.717533491e-09 -1.279960898e-08)
(0 6.964493122e-09 -5.599828929e-09)
(0 4.329279508e-09 4.235164736e-09)
(0 6.117460175e-10 7.10566528e-09)
(0 -2.352869298e-10 6.917435736e-09)
(0 -1.788180666e-09 6.917435736e-09)
(0 -2.917557929e-09 3.058730087e-09)
(0 -2185.021889 20383.43242)
(0 -6251.54926 20236.42815)
(0 -9189.851233 19127.87298)
(0 -9780.149539 15943.00651)
(0 -8464.06594 11377.56435)
(0 -6984.49931 7191.037463)
(0 -6015.839969 3571.047629)
(0 -2908.670139 194.3485757)
(0 -95.0007863 110.7782243)
(0 -42.23529737 77.97793176)
(0 -29.29150982 54.16826292)
(0 -20.15816102 37.14513637)
(0 -13.72966201 25.08415846)
(0 -9.232163436 16.63041147)
(0 -6.112913605 10.79074943)
(0 -3.974288452 6.832730871)
(0 -2.529676758 4.21175038)
(0 -1.571986771 2.522310174)
(0 -0.9513247162 1.465384109)
(0 -0.5595041269 0.8250082716)
(0 -0.3192762562 0.4497953728)
(0 -0.1765633655 0.2373821447)
(0 -0.09454836771 0.1212518298)
(0 -0.04900238555 0.05994437387)
(0 -0.02457515974 0.02868828486)
(0 -0.0119258825 0.01329479446)
(0 -0.005601076044 0.005968173206)
(0 -0.002546632084 0.002596409246)
(0 -0.00112136132 0.001095181461)
(0 -0.0004784251962 0.000448132004)
(0 -0.0001978764491 0.0001779748924)
(0 -7.937945737e-05 6.864590291e-05)
(0 -3.090310299e-05 2.57252847e-05)
(0 -1.168194901e-05 9.370631381e-06)
(0 -4.291539485e-06 3.3238514e-06)
(0 -1.533223749e-06 1.146976725e-06)
(0 -5.301014528e-07 3.846470728e-07)
(0 -1.784886649e-07 1.228197774e-07)
(0 -6.390393013e-08 4.08928684e-08)
(0 -2.677565261e-08 1.421133056e-08)
(0 -1.270549421e-08 3.811648263e-09)
(0 -4.564566438e-09 -7.999755613e-10)
(0 3.294017017e-10 -2.399926684e-09)
(0 3.999877806e-09 -2.588156228e-09)
(0 9.929108437e-09 -4.752795982e-09)
(0 8.470329473e-09 -3.152844859e-09)
(0 2.070524982e-09 8.470329473e-10)
(0 0 2.541098842e-09)
(0 -2.070524982e-09 2.21169714e-09)
(0 -7.058607894e-09 4.18810735e-09)
(0 -1979.824758 11089.36683)
(0 -5906.285617 11477.79364)
(0 -9524.874884 11987.31286)
(0 -11984.5272 11826.26388)
(0 -11989.80694 9664.798491)
(0 -10408.3869 6526.30722)
(0 -9245.69945 3432.914826)
(0 -4551.033892 212.3870378)
(0 -151.3883095 132.0747678)
(0 -70.93399994 97.8727892)
(0 -50.50988672 71.56206676)
(0 -35.63793963 51.55485582)
(0 -24.91566088 36.43546258)
(0 -17.21092872 25.15083486)
(0 -11.70202711 16.89480612)
(0 -7.799975923 11.01258261)
(0 -5.077517364 6.951367307)
(0 -3.217481863 4.243286238)
(0 -1.979498637 2.502805101)
(0 -1.180119775 1.425822955)
(0 -0.6808406446 0.7844631147)
(0 -0.3797922864 0.4168686813)
(0 -0.2047540779 0.2140262123)
(0 -0.1066698112 0.1062053331)
(0 -0.05370438092 0.05096157935)
(0 -0.02613653251 0.02365844982)
(0 -0.01230046442 0.01063218729)
(0 -0.005600604623 0.004628157578)
(0 -0.002468424968 0.001952563974)
(0 -0.001053726915 0.0007988782301)
(0 -0.0004359355766 0.000317177981)
(0 -0.0001748944689 0.0001222730176)
(0 -6.808817878e-05 4.57964833e-05)
(0 -2.573257859e-05 1.667299653e-05)
(0 -9.448323125e-06 5.902643208e-06)
(0 -3.374861606e-06 2.034526082e-06)
(0 -1.172105369e-06 6.81673293e-07)
(0 -3.948585256e-07 2.196168203e-07)
(0 -1.315724511e-07 6.729206192e-08)
(0 -4.92690831e-08 2.268166003e-08)
(0 -1.934058563e-08 5.646886315e-09)
(0 -6.164517561e-09 2.776385772e-09)
(0 -1.882295438e-09 -2.494041456e-09)
(0 1.364664193e-09 -1.129377263e-09)
(0 6.446861876e-09 -4.046935192e-09)
(0 9.976165823e-09 -5.976288017e-09)
(0 6.211574947e-09 -2.44698407e-09)
(0 1.223492035e-09 4.235164736e-10)
(0 -1.411721579e-10 2.399926684e-09)
(0 -9.364419806e-09 -1.411721579e-10)
(0 -1796.595079 6959.348822)
(0 -5353.603233 7274.440136)
(0 -8841.380994 7961.856541)
(0 -12102.6639 8716.333571)
(0 -13764.0226 8535.941364)
(0 -13216.38298 6320.194099)
(0 -12329.76015 3483.373187)
(0 -6209.510197 256.9646291)
(0 -209.5150349 176.157039)
(0 -102.7479984 138.2536995)
(0 -75.60944319 106.5948315)
(0 -55.2847652 80.45970475)
(0 -40.13368298 59.13877075)
(0 -28.7728199 42.14632649)
(0 -20.25116585 29.03728298)
(0 -13.91772726 19.30423975)
(0 -9.298973131 12.37084092)
(0 -6.020548976 7.638348939)
(0 -3.768787999 4.543941984)
(0 -2.277846113 2.604931068)
(0 -1.32823053 1.43967642)
(0 -0.7470002679 0.7674750916)
(0 -0.405211716 0.3948680878)
(0 -0.2120670185 0.1962028877)
(0 -0.107122043 0.09421346406)
(0 -0.05225527451 0.04374909437)
(0 -0.02463136833 0.01965937773)
(0 -0.01122625535 0.00855481268)
(0 -0.00495064062 0.003607315258)
(0 -0.002113811283 0.001474954471)
(0 -0.0008744815675 0.000585167253)
(0 -0.0003507609551 0.0002254024318)
(0 -0.0001365032182 8.43559171e-05)
(0 -5.15757891e-05 3.068885071e-05)
(0 -1.892991582e-05 1.085571542e-05)
(0 -6.754240721e-06 3.739226946e-06)
(0 -2.345057772e-06 1.252855844e-06)
(0 -7.92869896e-07 4.084581101e-07)
(0 -2.60792033e-07 1.284666637e-07)
(0 -8.842082822e-08 4.263399168e-08)
(0 -3.270488324e-08 1.482307658e-08)
(0 -1.265843682e-08 1.97641021e-09)
(0 -3.482246561e-09 -1.317606807e-09)
(0 2.352869298e-09 -2.682271e-09)
(0 5.129255069e-09 -1.176434649e-09)
(0 1.002322321e-08 -2.305811912e-09)
(0 8.423272087e-09 -4.282222122e-09)
(0 4.89396814e-09 -5.646886315e-10)
(0 -2.588156228e-09 1.882295438e-09)
(0 -9.31736242e-09 -2.258754526e-09)
(0 -1664.733444 5184.69967)
(0 -4903.777898 5451.354132)
(0 -8082.981449 6080.245275)
(0 -11410.44238 6952.608408)
(0 -14385.94641 7582.34685)
(0 -15460.95508 6390.103185)
(0 -15308.92892 3609.59102)
(0 -7858.250041 341.8425316)
(0 -270.0992391 259.1143848)
(0 -140.4962075 214.5316535)
(0 -108.3038815 172.7884806)
(0 -83.09400037 134.9845717)
(0 -63.22903914 101.8523265)
(0 -47.31241648 74.01883633)
(0 -34.54411385 51.7286837)
(0 -24.46641799 34.74301932)
(0 -16.74340818 22.42509996)
(0 -11.0443808 13.91466644)
(0 -7.012916508 8.304574326)
(0 -4.284385339 4.770417888)
(0 -2.518296621 2.639412708)
(0 -1.424600619 1.407671783)
(0 -0.7760262819 0.7242276974)
(0 -0.407324435 0.3597199348)
(0 -0.2061581742 0.17262434)
(0 -0.1006906188 0.08009673785)
(0 -0.0474947461 0.0359603236)
(0 -0.02165266714 0.01563298892)
(0 -0.009548283177 0.006585314258)
(0 -0.004075874873 0.002689832698)
(0 -0.001685487615 0.001066056044)
(0 -0.0006757058047 0.0004102268561)
(0 -0.0002628016657 0.0001533679265)
(0 -9.923287439e-05 5.574088539e-05)
(0 -3.639799395e-05 1.970452745e-05)
(0 -1.297772119e-05 6.780686972e-06)
(0 -4.50278009e-06 2.271412963e-06)
(0 -1.519294763e-06 7.416244027e-07)
(0 -4.973965696e-07 2.374045122e-07)
(0 -1.628656128e-07 7.64211948e-08)
(0 -6.004522448e-08 2.837560373e-08)
(0 -2.230520094e-08 6.87037835e-09)
(0 -6.540976648e-09 3.199902245e-09)
(0 1.505836351e-09 -1.647008509e-09)
(0 6.917435736e-09 3.294017017e-10)
(0 6.823320964e-09 -5.646886315e-10)
(0 7.999755613e-09 -3.858705649e-09)
(0 7.293894824e-09 -5.693943701e-09)
(0 -1.788180666e-09 -2.588156228e-09)
(0 -9.035018104e-09 1.882295438e-10)
(0 -1529.940617 4516.24372)
(0 -4458.057628 4835.373419)
(0 -7340.126717 5534.972383)
(0 -10600.56233 6461.053413)
(0 -14326.52782 7280.998422)
(0 -17189.1388 6951.874305)
(0 -18378.0208 4130.925871)
(0 -9559.986832 504.2204492)
(0 -336.825913 411.1170346)
(0 -189.0739026 354.1789831)
(0 -155.156525 293.8668067)
(0 -126.2209193 234.4723282)
(0 -101.0994184 179.5103438)
(0 -78.8964627 131.7232807)
(0 -59.52698286 92.62680153)
(0 -43.221311 62.44321235)
(0 -30.12732601 40.38453315)
(0 -20.14107461 25.07829025)
(0 -12.91303655 14.96690136)
(0 -7.943007732 8.592520793)
(0 -4.690976634 4.749660274)
(0 -2.662185278 2.530150064)
(0 -1.453163564 1.300014995)
(0 -0.7636703759 0.6448118717)
(0 -0.38674524 0.3089957306)
(0 -0.188919291 0.1431685156)
(0 -0.08909511722 0.06418716826)
(0 -0.04060126469 0.0278659882)
(0 -0.01789379693 0.01172293735)
(0 -0.007633069497 0.004782285952)
(0 -0.00315408741 0.001893058545)
(0 -0.001263449073 0.0007276221481)
(0 -0.0004909890947 0.0002717291577)
(0 -0.0001852391881 9.865500969e-05)
(0 -6.789011424e-05 3.484340615e-05)
(0 -2.418735521e-05 1.197770468e-05)
(0 -8.384167399e-06 4.010418661e-06)
(0 -2.826878347e-06 1.307771813e-06)
(0 -9.260422983e-07 4.163166936e-07)
(0 -2.974026793e-07 1.319018528e-07)
(0 -1.022086423e-07 4.437511496e-08)
(0 -3.78811957e-08 1.468190442e-08)
(0 -1.199963342e-08 3.529303947e-09)
(0 -4.705738596e-10 2.399926684e-09)
(0 6.164517561e-09 -7.999755613e-10)
(0 5.693943701e-09 -8.470329473e-10)
(0 3.435189175e-09 -2.823443158e-09)
(0 6.117460175e-09 -6.070402789e-09)
(0 3.199902245e-09 -3.623418719e-09)
(0 -6.776263578e-09 -9.411477192e-11)
(0 -1345.603746 4463.514465)
(0 -3885.049236 4887.242461)
(0 -6457.301455 5776.40112)
(0 -9664.416341 6889.411939)
(0 -13895.12552 7884.94455)
(0 -18611.02763 8037.983098)
(0 -21756.58278 5438.498739)
(0 -11578.05888 806.0695764)
(0 -420.1407052 684.0745374)
(0 -257.7464354 603.8108422)
(0 -228.0105364 509.6770701)
(0 -197.4504633 411.0932079)
(0 -165.9780866 316.6967594)
(0 -134.1959587 233.1075137)
(0 -103.8241822 164.0833726)
(0 -76.70868637 110.5763422)
(0 -54.10833028 71.4289005)
(0 -36.46201258 44.28105146)
(0 -23.49868596 26.37482161)
(0 -14.50162642 15.10972456)
(0 -8.58066735 8.334111244)
(0 -4.874245897 4.430094915)
(0 -2.661364475 2.271490846)
(0 -1.3983437 1.124416772)
(0 -0.7078015303 0.5377985614)
(0 -0.3454991811 0.2487317327)
(0 -0.1627972736 0.1113249575)
(0 -0.07411689804 0.04825283174)
(0 -0.03263198537 0.02026892437)
(0 -0.01390575368 0.008256872088)
(0 -0.005740151419 0.003264130024)
(0 -0.002297035286 0.001253048308)
(0 -0.0008917688512 0.0004674014859)
(0 -0.0003361184848 0.0001695107745)
(0 -0.0001230753931 5.980640825e-05)
(0 -4.381080279e-05 2.053946665e-05)
(0 -1.517261884e-05 6.869719547e-06)
(0 -5.113255558e-06 2.238237506e-06)
(0 -1.67326653e-06 7.108488723e-07)
(0 -5.349483636e-07 2.223461487e-07)
(0 -1.772651729e-07 6.790380794e-08)
(0 -6.305689718e-08 2.098759414e-08)
(0 -1.887001177e-08 4.470451666e-09)
(0 -2.870500543e-09 2.258754526e-09)
(0 3.670476105e-09 -3.294017017e-10)
(0 4.89396814e-09 -6.588034034e-10)
(0 2.729328386e-09 -2.21169714e-09)
(0 6.540976648e-09 -2.964615315e-09)
(0 4.18810735e-09 -4.752795982e-09)
(0 -5.364541999e-09 4.705738596e-11)
(0 -1106.212621 4828.773993)
(0 -3145.170973 5314.197546)
(0 -5337.957239 6374.744379)
(0 -8492.0189 7727.287415)
(0 -13177.95666 8931.738928)
(0 -19635.58462 9339.163318)
(0 -25609.93433 7268.069827)
(0 -14314.41103 1319.389397)
(0 -539.0846472 1161.107605)
(0 -363.4713699 1039.210546)
(0 -347.8741593 884.6515249)
(0 -319.20123 716.2904157)
(0 -279.0851126 552.2215787)
(0 -231.5098494 405.9851011)
(0 -182.0581544 285.1110373)
(0 -135.8757831 191.5775799)
(0 -96.42261671 123.3587247)
(0 -65.1951535 76.22483727)
(0 -42.08436346 45.2557408)
(0 -25.9837181 25.84640983)
(0 -15.37060628 14.21455081)
(0 -8.724805676 7.5352083)
(0 -4.758841707 3.85373421)
(0 -2.49736266 1.903116138)
(0 -1.26243028 0.9082387824)
(0 -0.6153928949 0.4192033489)
(0 -0.289574018 0.187268601)
(0 -0.1316572979 0.08102793628)
(0 -0.05788975654 0.03398114246)
(0 -0.02463786389 0.01382194114)
(0 -0.01015791119 0.005456492837)
(0 -0.004060177517 0.002091939104)
(0 -0.001574526676 0.0007793719554)
(0 -0.0005928343128 0.0002823353748)
(0 -0.000216861375 9.950679543e-05)
(0 -7.712399686e-05 3.414018057e-05)
(0 -2.668530243e-05 1.140746327e-05)
(0 -8.98593725e-06 3.714757105e-06)
(0 -2.941980713e-06 1.17822283e-06)
(0 -9.402065715e-07 3.622006997e-07)
(0 -3.036142542e-07 1.08749619e-07)
(0 -1.013616094e-07 3.181079291e-08)
(0 -3.068141564e-08 8.61150163e-09)
(0 -5.270427227e-09 1.882295438e-09)
(0 3.152844859e-09 5.176312455e-10)
(0 3.905763035e-09 -4.705738596e-11)
(0 1.129377263e-09 -2.21169714e-09)
(0 3.576361333e-09 -1.082319877e-09)
(0 6.211574947e-09 -1.552893737e-09)
(0 -2.070524982e-09 -2.352869298e-10)
(0 -860.1801925 5467.05693)
(0 -2339.078849 5988.467963)
(0 -4044.211586 7008.203463)
(0 -7107.421792 8546.766887)
(0 -12283.24962 10010.76933)
(0 -20274.69673 10666.93608)
(0 -29776.3567 9073.030518)
(0 -17685.0211 2235.607805)
(0 -700.3195566 1978.367957)
(0 -534.2025151 1781.042848)
(0 -550.9306665 1519.648585)
(0 -529.8804095 1229.19288)
(0 -476.2834013 944.7527633)
(0 -401.3065001 691.7140642)
(0 -318.2317034 483.5549521)
(0 -238.460999 323.4095993)
(0 -169.4610729 207.3029715)
(0 -114.5649964 127.543714)
(0 -73.87711341 75.41988992)
(0 -45.54281642 42.91341809)
(0 -26.89186888 23.51998857)
(0 -15.23506249 12.42897154)
(0 -8.293456637 6.338323855)
(0 -4.343839127 3.121894648)
(0 -2.19171432 1.486316702)
(0 -1.066469362 0.6845155209)
(0 -0.5009726862 0.3051764171)
(0 -0.2274043566 0.1318015285)
(0 -0.09983798056 0.05518083473)
(0 -0.04243040322 0.0224100192)
(0 -0.01747015345 0.008834098454)
(0 -0.006974156168 0.003382364718)
(0 -0.002701372628 0.001258582022)
(0 -0.001015983645 0.0004554126286)
(0 -0.0003712705874 0.0001603394782)
(0 -0.0001319100879 5.495512116e-05)
(0 -4.559813642e-05 1.834654541e-05)
(0 -1.534259012e-05 5.968288261e-06)
(0 -5.02572882e-06 1.891236342e-06)
(0 -1.604327459e-06 5.811116592e-07)
(0 -5.076080223e-07 1.739240985e-07)
(0 -1.632420719e-07 5.068080468e-08)
(0 -4.884556662e-08 1.43995601e-08)
(0 -1.087025616e-08 3.011672701e-09)
(0 1.694065895e-09 1.411721579e-10)
(0 2.070524982e-09 -2.682271e-09)
(0 1.694065895e-09 -2.776385772e-09)
(0 7.246837438e-09 -5.646886315e-10)
(0 5.082197684e-09 6.117460175e-10)
(0 -3.623418719e-09 -2.870500543e-09)
(0 -584.8015884 6036.800294)
(0 -1604.02444 6557.062491)
(0 -2779.658315 7514.808186)
(0 -5489.453036 9097.357617)
(0 -11057.78747 10959.60827)
(0 -20573.32343 12256.46734)
(0 -34041.2626 11146.45226)
(0 -21409.07359 3901.240588)
(0 -993.6496043 3364.162999)
(0 -822.1907424 3018.222603)
(0 -899.7241265 2567.192352)
(0 -894.0970515 2066.368915)
(0 -816.5639288 1578.740696)
(0 -692.7076607 1148.599557)
(0 -550.3626192 797.9420583)
(0 -412.1277637 530.5133196)
(0 -292.2885021 338.1802549)
(0 -197.0782351 207.0137732)
(0 -126.7146593 121.8488306)
(0 -77.88361946 69.04183664)
(0 -45.85505283 37.69769335)
(0 -25.90647039 19.85319858)
(0 -14.0659186 10.09324527)
(0 -7.349369814 4.95751692)
(0 -3.699809407 2.354297731)
(0 -1.79653318 1.081780663)
(0 -0.8422880106 0.481285981)
(0 -0.3816528802 0.2074671447)
(0 -0.1672812658 0.08670919349)
(0 -0.07098460022 0.03515851817)
(0 -0.02918556572 0.01383943924)
(0 -0.01163569395 0.005291698672)
(0 -0.004501478718 0.001966617474)
(0 -0.001691076903 0.0007107965915)
(0 -0.0006173188825 0.0002499913276)
(0 -0.0002191169297 8.559992616e-05)
(0 -7.567213533e-05 2.855230422e-05)
(0 -2.544105809e-05 9.281034118e-06)
(0 -8.329157315e-06 2.940474876e-06)
(0 -2.657754102e-06 9.060899666e-07)
(0 -8.339980513e-07 2.672388949e-07)
(0 -2.608390904e-07 7.769174422e-08)
(0 -7.844466239e-08 2.155228277e-08)
(0 -1.962292994e-08 4.18810735e-09)
(0 -2.399926684e-09 -4.705738596e-11)
(0 1.035262491e-09 -3.246959631e-09)
(0 3.294017017e-09 -8.940903332e-10)
(0 6.87037835e-09 -1.082319877e-09)
(0 3.952820421e-09 -1.270549421e-09)
(0 1.882295438e-10 -2.399926684e-09)
(0 -339.9179961 6583.647071)
(0 -861.0709573 6968.634488)
(0 -1503.91646 7825.029798)
(0 -3662.621706 9309.708677)
(0 -9124.139893 11570.4967)
(0 -20087.85274 13977.75106)
(0 -38131.58345 13917.34109)
(0 -25467.31037 6452.078694)
(0 -1583.337541 5649.283796)
(0 -1331.173162 5032.625025)
(0 -1502.784354 4247.630115)
(0 -1518.332066 3390.760408)
(0 -1394.05276 2568.813733)
(0 -1182.105138 1853.737547)
(0 -936.3179405 1278.04175)
(0 -698.2228024 843.8133111)
(0 -492.9606193 534.5218383)
(0 -330.8964207 325.3591817)
(0 -211.84905 190.5419865)
(0 -129.6939536 107.4785386)
(0 -76.08050694 58.44859086)
(0 -42.83951057 30.67083493)
(0 -23.1891383 15.5426787)
(0 -12.08278667 7.612083106)
(0 -6.067450577 3.605552124)
(0 -2.939481113 1.652844714)
(0 -1.375286204 0.7337977188)
(0 -0.6219811441 0.3157103834)
(0 -0.272146607 0.1317185395)
(0 -0.1153001574 0.05332385692)
(0 -0.04733697295 0.02095935034)
(0 -0.01884697803 0.008003417054)
(0 -0.007282274661 0.002970760304)
(0 -0.002732609744 0.001072513024)
(0 -0.0009964672998 0.0003768122534)
(0 -0.0003533492054 0.0001289049562)
(0 -0.0001219169814 4.296005231e-05)
(0 -4.095441946e-05 1.395496192e-05)
(0 -1.340062591e-05 4.421464927e-06)
(0 -4.277563441e-06 1.362687783e-06)
(0 -1.336006245e-06 4.046935192e-07)
(0 -4.090227988e-07 1.170787763e-07)
(0 -1.223021461e-07 3.326957187e-08)
(0 -3.242253893e-08 7.811526069e-09)
(0 -5.741001087e-09 1.647008509e-09)
(0 1.223492035e-09 -2.352869298e-10)
(0 3.858705649e-09 -9.411477192e-11)
(0 6.964493122e-09 5.646886315e-10)
(0 3.623418719e-09 3.764590877e-10)
(0 4.705738596e-11 -2.823443158e-10)
(0 -199.8141716 7283.729673)
(0 -362.6417131 7581.062913)
(0 -438.5841256 8182.132673)
(0 -1743.986136 9351.180436)
(0 -6389.745089 11855.56138)
(0 -18226.47903 15606.51559)
(0 -41566.93496 17760.64105)
(0 -29677.13089 10346.38233)
(0 -2413.103274 9306.562879)
(0 -2223.844423 8221.787054)
(0 -2541.588744 6860.932278)
(0 -2572.913434 5415.4782)
(0 -2353.58679 4059.411603)
(0 -1983.479643 2901.062451)
(0 -1560.286855 1982.687432)
(0 -1155.647676 1298.886229)
(0 -810.7426314 817.1327627)
(0 -541.0580868 494.3590524)
(0 -344.5953025 287.9606231)
(0 -209.9770151 161.659139)
(0 -122.6627565 87.54415538)
(0 -68.81238254 45.76788835)
(0 -37.12467042 23.11658285)
(0 -19.28649639 11.28808781)
(0 -9.659047799 5.332658823)
(0 -4.668287585 2.438808002)
(0 -2.179422342 1.080434909)
(0 -0.9837320597 0.4639571627)
(0 -0.4296677923 0.1932330999)
(0 -0.1817437894 0.07810357686)
(0 -0.07450600554 0.03065510732)
(0 -0.02962428385 0.01169040729)
(0 -0.0114323828 0.00433409489)
(0 -0.004285025001 0.001562977334)
(0 -0.001560926903 0.0005485645123)
(0 -0.0005529691307 0.0001874828843)
(0 -0.0001906221766 6.242802228e-05)
(0 -6.397959841e-05 2.02638986e-05)
(0 -2.092147851e-05 6.412933501e-06)
(0 -6.67452551e-06 1.974198513e-06)
(0 -2.079654115e-06 5.922172023e-07)
(0 -6.322630377e-07 1.724182622e-07)
(0 -1.876177978e-07 4.922202571e-08)
(0 -5.119843592e-08 1.37407567e-08)
(0 -1.044673968e-08 2.541098842e-09)
(0 -7.529181753e-10 2.823443158e-10)
(0 3.999877806e-09 -4.705738596e-11)
(0 7.34095221e-09 2.823443158e-10)
(0 3.152844859e-09 -9.411477192e-11)
(0 9.411477192e-11 -4.705738596e-11)
(0 -42.58475661 7977.102214)
(0 37.33204287 8297.24153)
(0 266.2010639 8826.543263)
(0 10.80699657 9818.170126)
(0 -2868.804736 12226.9521)
(0 -14182.77306 17298.1415)
(0 -43391.71671 22500.18183)
(0 -33921.38853 16681.35974)
(0 -3707.932819 15050.7174)
(0 -3776.803762 13119.27494)
(0 -4309.093208 10785.92722)
(0 -4319.852741 8395.578088)
(0 -3908.468509 6214.932405)
(0 -3258.829309 4392.60846)
(0 -2538.494163 2973.07205)
(0 -1863.777472 1931.273642)
(0 -1297.487796 1206.033657)
(0 -860.0685603 724.9610649)
(0 -544.5489634 419.9193041)
(0 -330.1104213 234.5842883)
(0 -191.9717576 126.4893028)
(0 -107.2670831 65.87798066)
(0 -57.66893884 33.16261136)
(0 -29.86671069 16.14570273)
(0 -14.91673038 7.607371651)
(0 -7.191705027 3.470930636)
(0 -3.350137044 1.534444024)
(0 -1.509182953 0.6576683994)
(0 -0.6580001928 0.2734436187)
(0 -0.27787815 0.1103531302)
(0 -0.1137501426 0.0432519472)
(0 -0.0451679905 0.0164731009)
(0 -0.01740970462 0.006100070447)
(0 -0.006518140122 0.002197463128)
(0 -0.00237196175 0.0007704897797)
(0 -0.0008394856484 0.0002630871629)
(0 -0.0002891359671 8.752744374e-05)
(0 -9.696955529e-05 2.838609753e-05)
(0 -3.1690326e-05 8.977419864e-06)
(0 -1.009818563e-05 2.766833122e-06)
(0 -3.137833553e-06 8.319745837e-07)
(0 -9.519709179e-07 2.447925218e-07)
(0 -2.809796516e-07 6.978610338e-08)
(0 -7.924463795e-08 1.952881517e-08)
(0 -1.915235609e-08 3.152844859e-09)
(0 -1.364664193e-09 1.882295438e-10)
(0 3.905763035e-09 9.411477192e-11)
(0 6.87037835e-09 1.882295438e-10)
(0 3.341074403e-09 -3.764590877e-10)
(0 1.882295438e-10 2.823443158e-10)
(0 120.3251439 8634.57788)
(0 486.7993357 8949.034516)
(0 1082.34447 9599.737103)
(0 1656.422701 10832.44903)
(0 1090.226287 13368.37234)
(0 -7953.249306 19302.4662)
(0 -42183.71673 28123.51233)
(0 -37126.59531 26450.04123)
(0 -5975.188071 23834.81905)
(0 -6488.634607 20383.04774)
(0 -7265.285596 16452.40777)
(0 -7143.908249 12598.39035)
(0 -6356.556418 9194.729227)
(0 -5225.339999 6419.825087)
(0 -4021.621672 4299.860845)
(0 -2922.686069 2768.118867)
(0 -2017.055209 1715.299823)
(0 -1327.17244 1024.233575)
(0 -834.9720791 589.8562955)
(0 -503.4070164 327.8740278)
(0 -291.3690641 176.0233311)
(0 -162.139074 91.32778191)
(0 -86.85694835 45.8204777)
(0 -44.8417361 22.24273714)
(0 -22.33381989 10.45281735)
(0 -10.74121521 4.758150424)
(0 -4.992684578 2.099158324)
(0 -2.244732464 0.8980418656)
(0 -0.9769830616 0.3727639236)
(0 -0.4119354609 0.1502095752)
(0 -0.1683860347 0.05879317149)
(0 -0.0667761606 0.02236447264)
(0 -0.02570802061 0.008272322769)
(0 -0.009614605669 0.002976898799)
(0 -0.003495302868 0.001042793885)
(0 -0.00123593142 0.0003557568025)
(0 -0.0004253231949 0.0001182611872)
(0 -0.0001425296223 3.832311161e-05)
(0 -4.654083703e-05 1.211280643e-05)
(0 -1.481997079e-05 3.73753288e-06)
(0 -4.601553543e-06 1.125706787e-06)
(0 -1.394545633e-06 3.312369398e-07)
(0 -4.129756192e-07 9.595000997e-08)
(0 -1.177375797e-07 2.630507875e-08)
(0 -2.978732531e-08 6.39980449e-09)
(0 -3.811648263e-09 1.223492035e-09)
(0 3.999877806e-09 -7.999755613e-10)
(0 6.87037835e-09 -9.411477192e-10)
(0 3.246959631e-09 -7.999755613e-10)
(0 1.882295438e-10 0)
(0 271.8718792 9260.146243)
(0 1002.491266 9559.371784)
(0 2149.615576 10326.8871)
(0 3779.44223 11848.31829)
(0 5601.212439 14771.06762)
(0 572.3669272 21251.74969)
(0 -36244.14168 34751.5885)
(0 -38210.08182 40657.12034)
(0 -9774.926308 36788.35241)
(0 -11159.21503 30717.73095)
(0 -12093.7506 24266.01845)
(0 -11577.53129 18242.05815)
(0 -10087.03378 13108.0489)
(0 -8153.697691 9032.91261)
(0 -6190.200382 5983.460774)
(0 -4448.338494 3816.040545)
(0 -3041.373088 2345.899806)
(0 -1985.512088 1391.287006)
(0 -1240.908511 796.5883771)
(0 -743.9433858 440.5714672)
(0 -428.5180035 235.502312)
(0 -237.4699365 121.7278873)
(0 -126.7539836 60.8718779)
(0 -65.23437105 29.46393566)
(0 -32.4013171 13.81116338)
(0 -15.54536405 6.272725864)
(0 -7.210245603 2.76180541)
(0 -3.235577354 1.179416951)
(0 -1.405832483 0.4887737357)
(0 -0.5918489022 0.1966728)
(0 -0.2415952451 0.07687880289)
(0 -0.09568883917 0.02920949746)
(0 -0.03679727841 0.01079256615)
(0 -0.01374766901 0.003880019209)
(0 -0.004993103699 0.001357921434)
(0 -0.001764018393 0.0004628802123)
(0 -0.0006065696579 0.0001537552558)
(0 -0.0002031179831 4.979254946e-05)
(0 -6.627585767e-05 1.57263431e-05)
(0 -2.108533233e-05 4.851192976e-06)
(0 -6.54417655e-06 1.464049392e-06)
(0 -1.981680637e-06 4.301045077e-07)
(0 -5.859115126e-07 1.237138677e-07)
(0 -1.68747786e-07 3.4869523e-08)
(0 -4.42339428e-08 9.035018104e-09)
(0 -8.61150163e-09 2.117582368e-09)
(0 1.788180666e-09 -7.529181753e-10)
(0 6.823320964e-09 -1.552893737e-09)
(0 4.235164736e-09 -7.999755613e-10)
(0 1.035262491e-09 0)
(0 419.5506851 9837.068052)
(0 1553.540194 10151.27637)
(0 3371.290975 11019.72672)
(0 6100.603218 12846.44322)
(0 10493.65769 16232.61914)
(0 12027.27157 23455.65898)
(0 -22778.34608 41361.34999)
(0 -35089.83139 60225.27702)
(0 -15914.57746 55069.89888)
(0 -19010.96857 44699.90604)
(0 -19740.9584 34468.11132)
(0 -18301.87779 25395.87646)
(0 -15565.70196 17948.02326)
(0 -12349.92813 12199.30724)
(0 -9238.493737 7988.968989)
(0 -6560.247037 5046.542149)
(0 -4441.808748 3077.465199)
(0 -2876.483869 1812.768552)
(0 -1785.687618 1031.914793)
(0 -1064.493082 567.9040149)
(0 -610.212644 302.2763117)
(0 -336.7695081 155.6683198)
(0 -179.1209 77.59569402)
(0 -91.90245062 37.45400993)
(0 -45.52502969 17.51349246)
(0 -21.79057318 7.937054232)
(0 -10.08599349 3.487896096)
(0 -4.517764138 1.486950803)
(0 -1.959727213 0.6152821055)
(0 -0.8238303938 0.2472381629)
(0 -0.3358493372 0.09652528745)
(0 -0.1328623974 0.03663301736)
(0 -0.05103749877 0.01352171097)
(0 -0.01904925039 0.004856669985)
(0 -0.006912441865 0.001698287224)
(0 -0.002440097645 0.000578450564)
(0 -0.0008384109518 0.0001920077343)
(0 -0.0002805585821 6.213984285e-05)
(0 -9.148214646e-05 1.96162478e-05)
(0 -2.90822645e-05 6.045274145e-06)
(0 -9.022642012e-06 1.821120837e-06)
(0 -2.734787042e-06 5.341954454e-07)
(0 -8.081635465e-07 1.529365044e-07)
(0 -2.32510544e-07 4.22104752e-08)
(0 -6.253926594e-08 1.129377263e-08)
(0 -1.364664193e-08 1.882295438e-09)
(0 2.823443158e-10 9.882051051e-10)
(0 6.823320964e-09 -7.999755613e-10)
(0 4.846910754e-09 9.411477192e-11)
(0 1.035262491e-09 1.411721579e-10)
(0 586.0801985 10324.45077)
(0 2185.149932 10693.08397)
(0 4844.782425 11722.36264)
(0 8992.33465 13955.74559)
(0 16210.4282 18237.66733)
(0 25701.09778 26035.6093)
(0 525.4763565 46559.77287)
(0 -24501.53292 85308.02174)
(0 -25300.29729 79455.71193)
(0 -31761.00259 62467.81173)
(0 -31397.78018 46925.29469)
(0 -28097.61936 33847.78335)
(0 -23283.603 23512.32165)
(0 -18112.75196 15757.95128)
(0 -13342.96547 10200.64767)
(0 -9359.842284 6382.16445)
(0 -6275.146685 3860.974489)
(0 -4031.062494 2259.093625)
(0 -2485.773048 1278.723665)
(0 -1473.581867 700.3550613)
(0 -840.7536985 371.2453632)
(0 -462.1505541 190.5113363)
(0 -244.9682935 94.67368916)
(0 -125.3165726 45.57577715)
(0 -61.9182728 21.26168262)
(0 -29.57096041 9.616024047)
(0 -13.66034903 4.218077529)
(0 -6.108191345 1.795355823)
(0 -2.645545124 0.7418335358)
(0 -1.11060572 0.2977080935)
(0 -0.4522003908 0.1160954051)
(0 -0.1786924157 0.04401430339)
(0 -0.06857362583 0.0162308794)
(0 -0.0255710927 0.005824719565)
(0 -0.009271323214 0.002035198297)
(0 -0.003270297836 0.0006927027913)
(0 -0.001122880285 0.0002297790981)
(0 -0.0003755094696 7.431843551e-05)
(0 -0.0001223704264 2.344780133e-05)
(0 -3.888041223e-05 7.217661858e-06)
(0 -1.205534936e-05 2.169627837e-06)
(0 -3.649912027e-06 6.356982269e-07)
(0 -1.077802368e-06 1.82159141e-07)
(0 -3.103905178e-07 5.006905866e-08)
(0 -8.465623734e-08 1.30819533e-08)
(0 -1.8775897e-08 2.070524982e-09)
(0 -8.940903332e-10 1.458778965e-09)
(0 5.929230631e-09 -8.470329473e-10)
(0 5.176312455e-09 -1.882295438e-10)
(0 7.529181753e-10 2.682271e-09)
(0 788.1838856 10654.87309)
(0 2951.452069 11101.2659)
(0 6633.952601 12348.1963)
(0 12615.9079 15043.02103)
(0 22573.5214 20412.30761)
(0 40349.37711 29572.66777)
(0 36494.06637 51149.55583)
(0 -2193.892333 114735.4861)
(0 -38754.78748 109623.2956)
(0 -51541.38581 83277.98026)
(0 -48360.98677 60874.77026)
(0 -41714.85083 42965.5074)
(0 -33655.53403 29330.69752)
(0 -25661.60211 19383.00941)
(0 -18614.28057 12404.49698)
(0 -12899.92022 7688.486702)
(0 -8564.879573 4615.269354)
(0 -5458.734693 2683.024216)
(0 -3344.426182 1510.46129)
(0 -1971.971383 823.4922332)
(0 -1120.056369 434.818877)
(0 -613.3411822 222.39152)
(0 -324.0564591 110.1990375)
(0 -165.3144572 52.91763045)
(0 -81.48478279 24.63319654)
(0 -38.83417827 11.1196757)
(0 -17.90666171 4.869483631)
(0 -7.994008131 2.069540941)
(0 -3.457374943 0.8539965505)
(0 -1.449568524 0.3423160687)
(0 -0.5895431274 0.1333493825)
(0 -0.232726923 0.05050732419)
(0 -0.08922708269 0.01860914736)
(0 -0.03324493154 0.006672943581)
(0 -0.01204445854 0.002329896117)
(0 -0.004245516844 0.0007924847784)
(0 -0.001456795308 0.0002627188918)
(0 -0.0004868898317 8.492535853e-05)
(0 -0.0001585830142 2.67809701e-05)
(0 -5.036039094e-05 8.241160003e-06)
(0 -1.560455859e-05 2.47686551e-06)
(0 -4.722255738e-06 7.277895312e-07)
(0 -1.393792715e-06 2.085583346e-07)
(0 -4.015877318e-07 5.868056029e-08)
(0 -1.10584857e-07 1.534070782e-08)
(0 -2.517570149e-08 3.246959631e-09)
(0 -2.635213614e-09 1.364664193e-09)
(0 5.176312455e-09 1.317606807e-09)
(0 8.282099929e-09 1.035262491e-09)
(0 -1.411721579e-09 2.44698407e-09)
(0 1032.47301 10736.8272)
(0 3878.473145 11269.35489)
(0 8786.53756 12761.981)
(0 17056.44596 16005.27778)
(0 30740.07494 22674.41136)
(0 56438.346 35353.86682)
(0 85688.29472 61196.64629)
(0 33972.20687 145098.1298)
(0 -56757.80316 143170.4945)
(0 -80509.52795 105027.1684)
(0 -71710.25304 74705.63273)
(0 -59641.6921 51605.61219)
(0 -46866.10099 34632.99647)
(0 -35038.9525 22576.69473)
(0 -25037.48818 14290.00177)
(0 -17149.06991 8778.022589)
(0 -11280.60917 5230.615418)
(0 -7135.870557 3022.258548)