/*--------------------------------*- C++ -*----------------------------------*\
  =========                 |
  \\      /  F ield         | OpenFOAM: The Open Source CFD Toolbox
   \\    /   O peration     | Website:  https://openfoam.org
    \\  /    A nd           | Version:  6
     \\/     M anipulation  |
\*---------------------------------------------------------------------------*/
FoamFile
{
    version     2.0;
    format      ascii;
    class       volVectorField;
    location    "0.16";
    object      Marangoni;
}
// * * * * * * * * * * * * * * * * * * * * * * * * * * * * * * * * * * * * * //

dimensions      [1 -2 -2 0 0 0 0];

internalField   nonuniform List<vector> 
2500
(
(-0 2.007626493e-11 -4.229248225e-10)
(-0 3.874972046e-11 -2.883301913e-10)
(-0 6.780029255e-12 -3.593521461e-11)
(-0 2.54417571e-12 -1.212493464e-11)
(-0 2.073832509e-12 -8.768745429e-12)
(-0 7.33478246e-12 -2.38681222e-11)
(-0 4.212299247e-07 -7.703390368e-07)
(-0 8.31867754e-06 -16.68396069)
(-0 2.78781961e-07 -8.637591398)
(-0 3.334711823e-09 -1.639943886e-08)
(-0 6.851962895e-14 -3.336651169e-13)
(-0 2.854237235e-14 -1.360766132e-13)
(-0 1.740252505e-14 -8.073589231e-14)
(-0 7.581159036e-15 -3.409040546e-14)
(-0 1.103370461e-14 -4.792021358e-14)
(-0 1.354472223e-14 -5.662130684e-14)
(-0 3.954154052e-15 -1.585976691e-14)
(-0 1.218121592e-15 -4.675027499e-15)
(-0 1.536874125e-15 -5.631905574e-15)
(-0 1.0617275e-15 -3.709413556e-15)
(-0 7.213403052e-16 -2.40064295e-15)
(-0 3.672329336e-16 -1.163812069e-15)
(-0 1.657603571e-16 -5.003041378e-16)
(-0 2.839362398e-16 -8.165898823e-16)
(-0 6.832691853e-17 -1.873888612e-16)
(-0 3.271795121e-17 -8.565139447e-17)
(-0 1.77025349e-17 -4.428627905e-17)
(-0 1.200627258e-17 -2.873796844e-17)
(-0 2.11927658e-18 -4.85958982e-18)
(-0 6.692510044e-19 -1.47206603e-18)
(-0 1.05573873e-19 -2.23025785e-19)
(-0 1.433633314e-19 -2.911922891e-19)
(-0 6.295952139e-20 -1.231588224e-19)
(-0 2.904749639e-20 -5.479950009e-20)
(-0 7.744715314e-21 -1.409277901e-20)
(-0 4.87565111e-21 -8.602505648e-21)
(-0 1.850578797e-21 -3.248255891e-21)
(-0 7.73174772e-22 -1.376279677e-21)
(-0 4.340407479e-23 -5.697901176e-23)
(-0 5.802413641e-24 -1.911647905e-24)
(-0 0 0)
(-0 -0 0)
(-0 0 0)
(-0 -0 0)
(-0 -0 0)
(-0 -0 -0)
(-0 -0 -0)
(-0 0 -0)
(-0 0 -0)
(-0 0 -0)
(-0 6.727612286e-11 -6.282944449e-10)
(-0 2.450398058e-10 -7.942976506e-10)
(-0 1.583321339e-10 -3.300131785e-10)
(-0 1.490217127e-11 -2.431391851e-11)
(-0 2.05213196e-11 -2.759778065e-11)
(-0 1.887383982e-11 -1.944173313e-11)
(-0 9.861748076e-07 -5.866515069e-07)
(-0 2.21867108e-05 -16.1963236)
(-0 7.394667252e-07 -9.227775136)
(-0 5.142929279e-09 -9.502049029e-09)
(-0 2.419982642e-13 -4.474113823e-13)
(-0 1.11423322e-13 -2.052652768e-13)
(-0 8.281133053e-14 -1.512581185e-13)
(-0 4.599196804e-14 -8.282763797e-14)
(-0 2.600534714e-14 -4.589515699e-14)
(-0 7.357757087e-14 -1.264706346e-13)
(-0 3.48843654e-14 -5.806929615e-14)
(-0 1.160152835e-14 -1.861192768e-14)
(-0 1.009768102e-14 -1.555171904e-14)
(-0 8.004804331e-15 -1.180174358e-14)
(-0 4.067162951e-15 -5.729089398e-15)
(-0 4.181414922e-15 -5.621089539e-15)
(-0 1.699467836e-15 -2.179215401e-15)
(-0 4.195010918e-16 -5.131207679e-16)
(-0 3.582812943e-16 -4.182051315e-16)
(-0 1.254999284e-16 -1.398919607e-16)
(-0 4.426269344e-17 -4.715923561e-17)
(-0 7.067936555e-17 -7.205415771e-17)
(-0 2.589461291e-17 -2.528772392e-17)
(-0 3.037480803e-18 -2.844889196e-18)
(-0 1.010966406e-18 -9.092045591e-19)
(-0 6.993254207e-19 -6.047081423e-19)
(-0 4.208375193e-19 -3.502933262e-19)
(-0 1.529238641e-19 -1.226558808e-19)
(-0 8.09205268e-20 -6.266606342e-20)
(-0 3.888917424e-20 -2.908935616e-20)
(-0 7.224509203e-21 -5.243190611e-21)
(-0 5.418059858e-21 -3.727155168e-21)
(-0 3.633428518e-22 -2.322176455e-22)
(-0 5.308702302e-23 -2.818199987e-23)
(-0 0 -0)
(-0 0 0)
(-0 -0 0)
(-0 -0 0)
(-0 -0 0)
(-0 -0 0)
(-0 -0 -0)
(-0 -0 -0)
(-0 0 -0)
(-0 0 -0)
(-0 7.148026528e-11 -4.016041314e-10)
(-0 3.975833422e-10 -7.748874897e-10)
(-0 6.108327829e-10 -7.705183659e-10)
(-0 2.23395562e-10 -2.207610804e-10)
(-0 1.810082577e-11 -1.460743145e-11)
(-0 2.706925833e-11 -1.698599867e-11)
(-0 1.045508452e-06 -3.887251442e-07)
(-0 3.473204496e-05 -17.70170812)
(-0 1.159865359e-06 -11.00161548)
(-0 7.32424717e-09 -1.010965608e-08)
(-0 3.470376528e-13 -4.915429191e-13)
(-0 1.118998749e-13 -1.618337997e-13)
(-0 1.328261265e-13 -1.941892555e-13)
(-0 2.660499434e-13 -3.886969794e-13)
(-0 1.778271412e-13 -2.566856187e-13)
(-0 1.377378427e-13 -1.944339494e-13)
(-0 9.118044365e-14 -1.248113467e-13)
(-0 4.676658292e-14 -6.166868334e-14)
(-0 1.625688777e-14 -2.055226861e-14)
(-0 1.612251084e-14 -1.947730814e-14)
(-0 5.949362315e-15 -6.854236125e-15)
(-0 6.990019492e-15 -7.671791488e-15)
(-0 6.078832567e-15 -6.353639873e-15)
(-0 2.890436188e-15 -2.877651302e-15)
(-0 1.140281102e-15 -1.081973091e-15)
(-0 5.187022479e-16 -4.694926026e-16)
(-0 3.943329732e-16 -3.408294568e-16)
(-0 9.607974912e-17 -7.939229822e-17)
(-0 4.669977238e-17 -3.693801782e-17)
(-0 1.581715457e-17 -1.199097341e-17)
(-0 1.695757128e-18 -1.233723985e-18)
(-0 1.426779694e-18 -9.974358069e-19)
(-0 1.155351631e-18 -7.770493222e-19)
(-0 2.776262789e-19 -1.798718519e-19)
(-0 1.744628065e-19 -1.089848976e-19)
(-0 8.573267765e-20 -5.168181639e-20)
(-0 1.206391606e-20 -7.015136334e-21)
(-0 1.21382423e-20 -6.749112365e-21)
(-0 3.402979404e-21 -1.741797785e-21)
(-0 2.644405975e-22 -1.215818839e-22)
(-0 2.003538537e-23 -5.800999657e-24)
(-0 0 -0)
(-0 0 0)
(-0 -0 0)
(-0 -0 0)
(-0 -0 0)
(-0 -0 0)
(-0 -0 -0)
(-0 0 -0)
(-0 0 0)
(-0 6.012254426e-11 -2.340352225e-10)
(-0 3.582367621e-10 -4.888019838e-10)
(-0 1.004372491e-09 -9.070473248e-10)
(-0 8.327003359e-10 -6.006711725e-10)
(-0 1.51537866e-10 -9.405242195e-11)
(-0 4.280157842e-11 -2.047380658e-11)
(-0 1.142187134e-06 -3.229211658e-07)
(-0 4.741958517e-05 -21.41418315)
(-0 1.600992316e-06 -14.67314332)
(-0 9.228147274e-09 -1.241902994e-08)
(-0 1.930126414e-13 -2.720316742e-13)
(-0 6.25479351e-13 -9.100665807e-13)
(-0 8.033895762e-13 -1.183559279e-12)
(-0 4.268323173e-13 -6.250993386e-13)
(-0 1.942415892e-13 -2.784683454e-13)
(-0 9.124982843e-14 -1.265481403e-13)
(-0 6.711875447e-14 -8.928062252e-14)
(-0 7.541176455e-14 -9.566640659e-14)
(-0 3.919429874e-15 -4.72516616e-15)
(-0 3.872100041e-14 -4.427782217e-14)
(-0 2.284257462e-15 -2.475756001e-15)
(-0 8.941147336e-15 -9.185667587e-15)
(-0 4.634766797e-15 -4.516205826e-15)
(-0 2.150130941e-15 -1.989180835e-15)
(-0 6.478555348e-16 -5.697577851e-16)
(-0 3.474317846e-16 -2.908620214e-16)
(-0 5.275092401e-16 -4.210078394e-16)
(-0 3.598659564e-16 -2.742176581e-16)
(-0 9.609181115e-17 -7.001453716e-17)
(-0 2.009426785e-17 -1.402050749e-17)
(-0 1.316999296e-17 -8.812396668e-18)
(-0 4.687222149e-18 -3.011909558e-18)
(-0 2.298969744e-18 -1.42064201e-18)
(-0 3.364037931e-19 -2.001585303e-19)
(-0 4.051788393e-19 -2.323485144e-19)
(-0 7.61075652e-20 -4.213105907e-20)
(-0 3.688670547e-20 -1.970711482e-20)
(-0 1.001941627e-20 -5.16182478e-21)
(-0 7.496995663e-21 -3.692165164e-21)
(-0 1.528605506e-21 -7.381727444e-22)
(-0 1.250355262e-22 -5.665390364e-23)
(-0 6.04980337e-24 -9.445789648e-25)
(-0 0 0)
(-0 -0 0)
(-0 -0 0)
(-0 -0 0)
(-0 -0 0)
(-0 -0 0)
(-0 0 -0)
(-0 0 0)
(-0 8.447208857e-11 -2.644669037e-10)
(-0 3.805442247e-10 -4.246292615e-10)
(-0 1.065516803e-09 -8.028670129e-10)
(-0 1.872372127e-09 -1.140971361e-09)
(-0 8.036200505e-10 -4.232027208e-10)
(-0 7.82582753e-11 -3.23111838e-11)
(-0 1.696096173e-06 -3.998769985e-07)
(-0 6.003980063e-05 -28.47686404)
(-0 2.049654253e-06 -21.58239436)
(-0 1.340781727e-08 -2.047726911e-08)
(-0 7.380070662e-13 -1.177095666e-12)
(-0 1.699424575e-12 -2.760059156e-12)
(-0 4.193142851e-13 -6.753245729e-13)
(-0 2.891817407e-13 -4.523460473e-13)
(-0 2.110491254e-13 -3.159989507e-13)
(-0 2.558642135e-13 -3.632962596e-13)
(-0 4.708213796e-14 -6.305336435e-14)
(-0 1.599982906e-13 -2.015644365e-13)
(-0 5.543188382e-14 -6.563713818e-14)
(-0 2.958422903e-14 -3.293839982e-14)
(-0 2.472727867e-14 -2.591512382e-14)
(-0 1.391359995e-14 -1.374756863e-14)
(-0 6.039669793e-15 -5.636260864e-15)
(-0 1.229054527e-15 -1.085363244e-15)
(-0 1.738333041e-15 -1.455508812e-15)
(-0 1.661382076e-15 -1.321526876e-15)
(-0 4.635668161e-16 -3.50970945e-16)
(-0 3.068235078e-16 -2.215134537e-16)
(-0 1.723909643e-16 -1.18890338e-16)
(-0 6.076710913e-17 -4.010087153e-17)
(-0 3.784035977e-17 -2.393263002e-17)
(-0 2.104306576e-17 -1.277485654e-17)
(-0 6.422148581e-18 -3.747721232e-18)
(-0 1.556349429e-18 -8.741925238e-19)
(-0 8.953236876e-19 -4.846711996e-19)
(-0 9.279989884e-20 -4.848418768e-20)
(-0 6.776828126e-20 -3.418392484e-20)
(-0 2.05762253e-20 -1.004356099e-20)
(-0 1.26176096e-20 -6.023156969e-21)
(-0 3.253026054e-21 -1.525622074e-21)
(-0 2.362398757e-22 -1.116196268e-22)
(-0 2.127551668e-23 -6.522092852e-24)
(-0 0 -0)
(-0 -0 0)
(-0 -0 -0)
(-0 -0 0)
(-0 -0 0)
(-0 -0 0)
(-0 0 0)
(-0 0 -0)
(-0 1.340769342e-10 -3.972327512e-10)
(-0 5.670326657e-10 -6.159398844e-10)
(-0 7.825557715e-10 -5.895528506e-10)
(-0 2.580555284e-09 -1.569243582e-09)
(-0 2.934537695e-09 -1.487240106e-09)
(-0 6.913155767e-10 -2.788822189e-10)
(-0 3.108398965e-06 -6.983125146e-07)
(-0 7.304965132e-05 -41.98723218)
(-0 2.540149338e-06 -34.24220914)
(-0 2.613292475e-08 -4.899434319e-08)
(-0 3.141279062e-12 -5.948171584e-12)
(-0 1.424171978e-12 -2.645114681e-12)
(-0 8.418842031e-13 -1.494620672e-12)
(-0 1.292753986e-13 -2.158095314e-13)
(-0 2.116182322e-13 -3.292566515e-13)
(-0 1.380586959e-13 -1.994418768e-13)
(-0 3.116310259e-13 -4.177007666e-13)
(-0 2.924899858e-13 -3.641664022e-13)
(-0 1.451719701e-13 -1.682528286e-13)
(-0 1.213241898e-14 -1.312383823e-14)
(-0 3.568577284e-14 -3.613045974e-14)
(-0 6.154928247e-15 -5.849395016e-15)
(-0 9.141765705e-15 -8.177950277e-15)
(-0 7.295390798e-15 -6.159656801e-15)
(-0 1.081560076e-14 -8.640904974e-15)
(-0 3.967139101e-15 -3.006282748e-15)
(-0 1.929640052e-15 -1.390118512e-15)
(-0 2.959832873e-16 -2.031343012e-16)
(-0 2.038295868e-16 -1.335310619e-16)
(-0 8.570712619e-17 -5.369505891e-17)
(-0 2.434491607e-17 -1.461098834e-17)
(-0 2.585228806e-17 -1.488771556e-17)
(-0 1.667831459e-17 -9.229910028e-18)
(-0 6.746966489e-18 -3.593148161e-18)
(-0 1.340826063e-18 -6.881244535e-19)
(-0 2.012070772e-19 -9.963447371e-20)
(-0 1.505486621e-19 -7.200765078e-20)
(-0 3.481188344e-20 -1.610382405e-20)
(-0 2.336309851e-20 -1.050297235e-20)
(-0 6.18135029e-21 -2.741379795e-21)
(-0 4.077034417e-22 -1.770167368e-22)
(-0 4.175072981e-23 -1.620177575e-23)
(-0 0 -0)
(-0 0 -0)
(-0 -0 0)
(-0 -0 0)
(-0 -0 0)
(-0 -0 0)
(-0 -0 0)
(-0 0 0)
(-0 1.496656697e-10 -4.969134038e-10)
(-0 7.35009444e-10 -9.23356823e-10)
(-0 7.787499691e-10 -6.943263872e-10)
(-0 1.37696017e-09 -9.778172973e-10)
(-0 4.448510992e-09 -2.515463971e-09)
(-0 3.32638672e-09 -1.432687146e-09)
(-0 4.920717354e-06 -1.231344604e-06)
(-0 8.838774811e-05 -67.11543742)
(-0 3.185592159e-06 -56.97691614)
(-0 4.401650493e-08 -1.032725008e-07)
(-0 4.038259765e-12 -9.02508543e-12)
(-0 1.326671658e-12 -2.76176413e-12)
(-0 9.955880174e-13 -1.899443996e-12)
(-0 1.499553249e-13 -2.604601018e-13)
(-0 5.755133801e-13 -9.094730508e-13)
(-0 5.81986993e-13 -8.388868714e-13)
(-0 7.800821607e-13 -1.02973501e-12)
(-0 4.152838525e-13 -5.043123724e-13)
(-0 2.800701664e-13 -3.143340842e-13)
(-0 2.299958486e-14 -2.396290431e-14)
(-0 6.931196193e-14 -6.731729881e-14)
(-0 4.12229544e-14 -3.746496993e-14)
(-0 3.371885558e-14 -2.877798594e-14)
(-0 3.116480178e-14 -2.505871691e-14)
(-0 1.583322702e-14 -1.202980851e-14)
(-0 8.203724404e-15 -5.905767917e-15)
(-0 4.017680227e-15 -2.747273439e-15)
(-0 8.37446952e-16 -5.451850395e-16)
(-0 1.730162754e-16 -1.074620562e-16)
(-0 4.472153551e-17 -2.6553308e-17)
(-0 6.089032515e-17 -3.462368001e-17)
(-0 3.825240521e-17 -2.086602056e-17)
(-0 2.642430726e-17 -1.384911639e-17)
(-0 1.35052988e-17 -6.810665955e-18)
(-0 2.768088082e-18 -1.345046101e-18)
(-0 3.291344901e-19 -1.54298853e-19)
(-0 2.328416641e-19 -1.054200792e-19)
(-0 4.529136143e-20 -1.982461284e-20)
(-0 4.37244021e-20 -1.85740816e-20)
(-0 1.415309692e-20 -5.880573676e-21)
(-0 5.980504501e-22 -2.292473622e-22)
(-0 1.068649351e-22 -3.554159641e-23)
(-0 6.919992416e-25 -1.643498199e-25)
(-0 0 -0)
(-0 -0 0)
(-0 -0 0)
(-0 -0 0)
(-0 -0 0)
(-0 -0 0)
(-0 0 -0)
(-0 9.856509863e-11 -4.294636708e-10)
(-0 7.432247797e-10 -1.251263571e-09)
(-0 1.084770958e-09 -1.289655887e-09)
(-0 5.443915769e-10 -4.934228055e-10)
(-0 2.450752292e-09 -1.656253412e-09)
(-0 2.86124514e-09 -1.358562429e-09)
(-0 5.594086678e-06 -1.592260295e-06)
(-0 0.0001606474019 -109.8844544)
(-0 4.095881914e-06 -96.71182277)
(-0 6.100578925e-08 -1.746927392e-07)
(-0 4.150778019e-12 -1.055398322e-11)
(-0 9.641833677e-13 -2.163417927e-12)
(-0 1.240495742e-12 -2.454355082e-12)
(-0 1.53962499e-12 -2.69976767e-12)
(-0 2.019212509e-12 -3.161988069e-12)
(-0 6.357038883e-13 -8.962602095e-13)
(-0 8.016331504e-13 -1.025521606e-12)
(-0 8.127145398e-13 -9.501637676e-13)
(-0 1.900850209e-13 -2.043999375e-13)
(-0 2.806077453e-13 -2.791123129e-13)
(-0 2.568841674e-13 -2.375528161e-13)
(-0 3.58285422e-14 -3.094208046e-14)
(-0 9.653648808e-14 -7.817231143e-14)
(-0 3.271531843e-14 -2.492962889e-14)
(-0 3.817206782e-14 -2.746118627e-14)
(-0 8.331936873e-15 -5.675435075e-15)
(-0 6.494479981e-15 -4.199819429e-15)
(-0 1.743263952e-15 -1.072837094e-15)
(-0 3.721080396e-16 -2.184167904e-16)
(-0 3.701608586e-16 -2.076524799e-16)
(-0 2.012687679e-17 -1.081100653e-17)
(-0 1.239604913e-16 -6.386571844e-17)
(-0 5.070681674e-17 -2.509813813e-17)
(-0 7.253271626e-18 -3.454190047e-18)
(-0 6.131244458e-18 -2.813193322e-18)
(-0 1.49018526e-18 -6.596261279e-19)
(-0 4.01751405e-19 -1.717343118e-19)
(-0 7.748019824e-20 -3.202869188e-20)
(-0 7.523873999e-20 -3.013026447e-20)
(-0 2.556534454e-20 -9.849512386e-21)
(-0 1.112784271e-21 -3.984982391e-22)
(-0 9.690236143e-23 -3.040604823e-23)
(-0 6.746992606e-24 -1.899537918e-24)
(-0 0 -0)
(-0 -0 -0)
(-0 -0 -0)
(-0 -0 0)
(-0 -0 0)
(-0 -0 0)
(-0 0 0)
(-0 2.887641258e-11 -1.828079346e-10)
(-0 3.379303092e-10 -8.607483033e-10)
(-0 1.062390747e-09 -1.832225799e-09)
(-0 1.938368177e-09 -2.323547415e-09)
(-0 3.144767416e-09 -2.558388405e-09)
(-0 4.046832884e-07 -2.127564912e-07)
(-0 0.0001980780758 -0.0003566243144)
(-0 0.01779420259 -186.2796611)
(-0 5.160686077e-06 -164.7845756)
(-0 9.859190144e-08 -3.293565148e-07)
(-0 5.919822533e-12 -1.632707941e-11)
(-0 2.690926196e-12 -6.241812812e-12)
(-0 1.597620933e-12 -3.168830954e-12)
(-0 1.843195204e-12 -3.176855668e-12)
(-0 7.710798342e-13 -1.171600078e-12)
(-0 2.017328961e-12 -2.735842861e-12)
(-0 1.142417656e-12 -1.39746247e-12)
(-0 3.125943867e-13 -3.479913666e-13)
(-0 4.82177335e-13 -4.922245496e-13)
(-0 9.301468978e-14 -8.764062324e-14)
(-0 2.567189565e-13 -2.245199058e-13)
(-0 3.431973488e-13 -2.799727128e-13)
(-0 1.144736426e-13 -8.748330273e-14)
(-0 3.094584371e-14 -2.22396333e-14)
(-0 1.187729151e-14 -8.05425836e-15)
(-0 1.991325476e-14 -1.278079375e-14)
(-0 8.214413492e-15 -5.003732314e-15)
(-0 2.399300191e-15 -1.390550495e-15)
(-0 1.783218817e-15 -9.855474736e-16)
(-0 9.8470985e-16 -5.200603103e-16)
(-0 3.300957526e-16 -1.669113002e-16)
(-0 2.043322405e-16 -9.909366607e-17)
(-0 4.17816185e-17 -1.946536085e-17)
(-0 1.201498851e-17 -5.385447715e-18)
(-0 3.469353532e-18 -1.498229967e-18)
(-0 3.182547026e-18 -1.325820401e-18)
(-0 2.899376857e-19 -1.166515753e-19)
(-0 1.89458077e-19 -7.36965962e-20)
(-0 1.131634697e-19 -4.258323701e-20)
(-0 3.293350231e-20 -1.192815889e-20)
(-0 1.675737167e-21 -5.738527016e-22)
(-0 2.892193127e-22 -8.971154606e-23)
(-0 5.366454119e-24 -1.582948265e-24)
(-0 0 -0)
(-0 -0 -0)
(-0 -0 0)
(-0 -0 0)
(-0 -0 0)
(-0 -0 -0)
(-0 0 0)
(-0 2.167376921e-12 -2.220878586e-11)
(-0 6.14878716e-11 -2.496318611e-10)
(-0 3.191712967e-10 -8.587687254e-10)
(-0 1.100738337e-09 -1.82015002e-09)
(-0 3.781001457e-09 -3.744358368e-09)
(-0 5.687076449e-07 -3.387550426e-07)
(-0 0.0002625449928 -0.08807526871)
(-0 0.1933033656 -325.9930968)
(-0 7.458170853e-06 -280.1891419)
(-0 2.127497318e-07 -7.841573812e-07)
(-0 6.780375475e-12 -1.934516226e-11)
(-0 1.90741132e-12 -4.407998176e-12)
(-0 3.473635984e-12 -6.715551972e-12)
(-0 2.189036852e-12 -3.629528146e-12)
(-0 1.675891137e-12 -2.429671982e-12)
(-0 3.280127072e-12 -4.222163952e-12)
(-0 1.83451365e-12 -2.122451753e-12)
(-0 9.746341351e-13 -1.023723721e-12)
(-0 6.494150396e-13 -6.244497939e-13)
(-0 2.144231104e-13 -1.900721648e-13)
(-0 3.717289604e-13 -3.055868702e-13)
(-0 4.546057541e-13 -3.483676718e-13)
(-0 1.228804936e-13 -8.817110746e-14)
(-0 1.464260394e-13 -9.876725223e-14)
(-0 1.844581905e-14 -1.173709046e-14)
(-0 2.524142158e-14 -1.519841078e-14)
(-0 5.512048154e-15 -3.149458662e-15)
(-0 9.124759055e-15 -4.960008603e-15)
(-0 5.272956694e-15 -2.733079152e-15)
(-0 1.442021419e-15 -7.141973373e-16)
(-0 5.639409204e-16 -2.674016073e-16)
(-0 1.967759897e-17 -8.9485958e-18)
(-0 5.249943858e-17 -2.293502735e-17)
(-0 2.671555107e-17 -1.122861025e-17)
(-0 5.78023878e-18 -2.340674602e-18)
(-0 3.240458064e-18 -1.265853231e-18)
(-0 1.596123785e-18 -6.022134367e-19)
(-0 2.062805112e-19 -7.524857932e-20)
(-0 1.801747409e-19 -6.360519886e-20)
(-0 5.455807504e-20 -1.859916757e-20)
(-0 2.921055083e-21 -9.359346176e-22)
(-0 2.873836953e-22 -8.556491923e-23)
(-0 0 -0)
(-0 0 -0)
(-0 0 -0)
(-0 -0 0)
(-0 -0 0)
(-0 -0 0)
(-0 -0 0)
(-0 -0 0)
(-0 1.550454994e-14 -2.975794875e-13)
(-0 3.889474832e-12 -3.117974459e-11)
(-0 3.45163498e-11 -1.78590016e-10)
(-0 1.286201979e-10 -3.265020536e-10)
(-0 1.737575132e-08 -2.203123188e-08)
(-0 5.819558009e-06 -4.070710136e-06)
(-0 0.0002967417362 -0.6877146514)
(-0 0.3126778215 -538.8841646)
(-0 1.259837047e-05 -470.3073852)
(-0 2.905450157e-07 -1.101779582e-06)
(-0 5.710185838e-12 -1.613937149e-11)
(-0 2.98042412e-12 -6.655603298e-12)
(-0 6.280206306e-12 -1.157194896e-11)
(-0 3.929974235e-12 -6.162567516e-12)
(-0 9.519827458e-12 -1.299364653e-11)
(-0 4.813569982e-12 -5.817014569e-12)
(-0 4.784576883e-12 -5.187730447e-12)
(-0 1.034385406e-12 -1.017030698e-12)
(-0 3.073278103e-12 -2.764055128e-12)
(-0 4.76213867e-13 -3.946250858e-13)
(-0 1.4534929e-12 -1.116591012e-12)
(-0 2.811868881e-13 -2.013059691e-13)
(-0 4.70374581e-13 -3.15257559e-13)
(-0 1.118390615e-13 -7.045474479e-14)
(-0 3.163247588e-14 -1.879658479e-14)
(-0 2.620852923e-14 -1.473615482e-14)
(-0 4.057624319e-14 -2.164886688e-14)
(-0 1.831511862e-14 -9.296112469e-15)
(-0 6.760453981e-15 -3.271898007e-15)
(-0 2.35770078e-15 -1.090335586e-15)
(-0 7.921827635e-16 -3.50737744e-16)
(-0 1.155807013e-16 -4.907934702e-17)
(-0 3.949047842e-17 -1.610914993e-17)
(-0 4.217643109e-17 -1.655291198e-17)
(-0 7.795764807e-18 -2.947815446e-18)
(-0 4.815065194e-18 -1.756496206e-18)
(-0 3.079717367e-18 -1.085151577e-18)
(-0 2.89149013e-19 -9.852121849e-20)
(-0 3.824331174e-19 -1.261734448e-19)
(-0 7.241167394e-20 -2.306568433e-20)
(-0 5.380553347e-21 -1.629318476e-21)
(-0 3.89661313e-22 -1.115952577e-22)
(-0 0 -0)
(-0 0 -0)
(-0 0 -0)
(-0 -0 0)
(-0 -0 0)
(-0 -0 -0)
(-0 -0 -0)
(-0 -0 0)
(-0 9.412146195e-18 -3.389828155e-16)
(-0 3.560277571e-14 -7.36710745e-13)
(-0 1.228237621e-12 -2.276879477e-11)
(-0 2.45071085e-12 -1.313352666e-11)
(-0 1.239847822e-08 -2.300038351e-08)
(-0 8.066217501e-06 -6.983523879e-06)
(-0 0.0003163199218 -0.9983967432)
(-0 -0.2408475149 -861.3183611)
(-0 2.006549301e-05 -774.7684614)
(-0 3.711746696e-07 -1.374821808e-06)
(-0 8.048203212e-12 -2.172565154e-11)
(-0 1.790060041e-11 -3.767573672e-11)
(-0 3.622492118e-12 -6.247710386e-12)
(-0 1.436608953e-11 -2.101108318e-11)
(-0 8.238215688e-12 -1.046799778e-11)
(-0 6.83290011e-12 -7.679473472e-12)
(-0 5.143897363e-12 -5.184210281e-12)
(-0 4.026278871e-12 -3.678604536e-12)
(-0 1.026674935e-12 -8.579012259e-13)
(-0 6.352128321e-12 -4.890218391e-12)
(-0 1.10574867e-12 -7.891349065e-13)
(-0 1.517843297e-12 -1.00948881e-12)
(-0 5.696335644e-13 -3.546800761e-13)
(-0 1.327574998e-13 -7.769734865e-14)
(-0 3.040985195e-13 -1.678818676e-13)
(-0 9.598415863e-14 -5.014174977e-14)
(-0 3.543903485e-14 -1.756786259e-14)
(-0 1.243051503e-14 -5.862325587e-15)
(-0 4.382324943e-15 -1.970756551e-15)
(-0 5.685178215e-15 -2.443065121e-15)
(-0 4.239788414e-16 -1.74435671e-16)
(-0 1.619487876e-16 -6.390560976e-17)
(-0 4.668724282e-17 -1.769861681e-17)
(-0 5.80817109e-17 -2.118449534e-17)
(-0 2.005908335e-17 -7.049130404e-18)
(-0 7.561864555e-18 -2.563710132e-18)
(-0 2.658065403e-18 -8.70465928e-19)
(-0 1.500559044e-18 -4.752409076e-19)
(-0 5.273946626e-19 -1.61650879e-19)
(-0 2.330707124e-20 -6.893705789e-21)
(-0 2.856794459e-21 -8.134941889e-22)
(-0 0 -0)
(-0 0 -0)
(-0 0 -0)
(-0 0 -0)
(-0 0 -0)
(-0 -0 0)
(-0 -0 -0)
(-0 -0 0)
(-0 -0 0)
(-0 7.258651003e-22 -1.295405516e-19)
(-0 -1.111082041e-16 -2.723092059e-14)
(-0 -2.274189708e-14 -7.527779409e-13)
(-0 -2.61883563e-14 -1.642295941e-11)
(-0 1.780473916e-09 -7.582831863e-09)
(-0 3.470464768e-06 -4.245709996e-06)
(-0 0.0003250259171 -0.5868455074)
(-0 -0.6612338824 -1388.366124)
(-0 3.025224888e-05 -1253.481221)
(-0 1.581565381e-07 -5.494873499e-07)
(-0 2.094875164e-11 -5.243588903e-11)
(-0 2.875842911e-11 -5.588962466e-11)
(-0 2.38984446e-11 -3.799975025e-11)
(-0 7.42627425e-12 -1.000950805e-11)
(-0 2.841835436e-11 -3.328196771e-11)
(-0 2.057443785e-11 -2.131859022e-11)
(-0 8.295607263e-12 -7.710543558e-12)
(-0 2.59835262e-12 -2.190081424e-12)
(-0 6.596750349e-12 -5.086738392e-12)
(-0 1.638271227e-12 -1.164141635e-12)
(-0 7.304616704e-12 -4.812758885e-12)
(-0 1.720182052e-12 -1.056399822e-12)
(-0 7.563860646e-13 -4.34940922e-13)
(-0 1.206002888e-12 -6.519252341e-13)
(-0 2.728257356e-13 -1.391317084e-13)
(-0 1.196387109e-13 -5.773849932e-14)
(-0 5.947687443e-14 -2.724057243e-14)
(-0 2.091253242e-14 -9.112787612e-15)
(-0 1.862456266e-14 -7.739400517e-15)
(-0 4.843461408e-15 -1.923381803e-15)
(-0 6.066302986e-16 -2.306519633e-16)
(-0 1.611649551e-16 -5.877525049e-17)
(-0 7.850903317e-17 -2.750694231e-17)
(-0 2.654445348e-17 -8.948513382e-18)
(-0 2.24239144e-17 -7.283661054e-18)
(-0 4.249535478e-18 -1.331701863e-18)
(-0 7.351478258e-19 -2.22533749e-19)
(-0 4.580741441e-19 -1.340865464e-19)
(-0 1.478632154e-20 -4.188573696e-21)
(-0 4.811797697e-21 -1.318272395e-21)
(-0 1.954968788e-21 -5.18291862e-22)
(-0 0 -0)
(-0 0 -0)
(-0 0 -0)
(-0 0 -0)
(-0 0 -0)
(-0 -0 -0)
(-0 -0 -0)
(-0 -0 0)
(-0 -0 -0)
(-0 -5.61210749e-36 -4.07382916e-34)
(-0 -3.67989646e-16 -6.801691352e-15)
(-0 -3.393122173e-15 -3.008066465e-14)
(-0 -1.262753958e-15 -8.233991595e-15)
(-0 -4.995649409e-10 -6.135387051e-09)
(-0 1.42841056e-06 -3.4693023e-06)
(-0 0.0003182468945 -0.4644333163)
(-0 -0.3784798934 -2203.200175)
(-0 4.551943702e-05 -1985.375536)
(-0 2.401258248e-07 -7.544363355e-07)
(-0 3.799904866e-11 -8.604955328e-11)
(-0 3.848688142e-11 -6.786987961e-11)
(-0 3.883018141e-11 -5.616530742e-11)
(-0 3.377125684e-11 -4.148937337e-11)
(-0 1.537699039e-11 -1.644013466e-11)
(-0 2.257930659e-11 -2.138424326e-11)
(-0 2.091991037e-11 -1.778945601e-11)
(-0 1.055321316e-11 -8.143982245e-12)
(-0 7.713383316e-12 -5.448782774e-12)
(-0 1.002506706e-11 -6.529128481e-12)
(-0 6.780578467e-12 -4.096128643e-12)
(-0 5.297624716e-12 -2.983845493e-12)
(-0 1.005821214e-12 -5.305858207e-13)
(-0 1.125626311e-13 -5.583155714e-14)
(-0 3.714196179e-13 -1.738260189e-13)
(-0 1.854436082e-13 -8.214405136e-14)
(-0 4.451172071e-14 -1.871392414e-14)
(-0 1.383717654e-14 -5.535524991e-15)
(-0 2.008526141e-15 -7.663084175e-16)
(-0 1.82052602e-16 -6.638111347e-17)
(-0 4.369423465e-17 -1.525541759e-17)
(-0 1.064924339e-16 -3.566441145e-17)
(-0 7.110894656e-17 -2.288032186e-17)
(-0 4.077317856e-17 -1.262368539e-17)
(-0 3.271213585e-17 -9.758915809e-18)
(-0 9.654699734e-18 -2.778923387e-18)
(-0 6.008607097e-18 -1.670612923e-18)
(-0 3.270332251e-18 -8.792768431e-19)
(-0 9.302519079e-19 -2.420959648e-19)
(-0 1.809044903e-20 -4.562220367e-21)
(-0 6.586016282e-21 -1.611069592e-21)
(-0 0 -0)
(-0 0 -0)
(-0 0 -0)
(-0 0 -0)
(-0 0 -0)
(-0 -0 0)
(-0 -0 0)
(-0 -0 0)
(-0 -0 -0)
(-0 -2.292698069e-35 -7.829130131e-34)
(-0 -1.619632123e-16 -1.546495154e-15)
(-0 -1.728975586e-15 -8.306418512e-15)
(-0 -1.494675536e-15 -4.685778891e-15)
(-0 -9.998107748e-10 -2.638755528e-09)
(-0 -6.781086295e-08 -2.543723401e-06)
(-0 0.0002719248229 -0.4086363108)
(-0 -0.3109720661 -3387.287346)
(-0 7.335084986e-05 -3064.681793)
(-0 5.019556248e-07 -1.381971647e-06)
(-0 6.489909547e-11 -1.302188151e-10)
(-0 7.302442715e-11 -1.150565468e-10)
(-0 4.787775902e-11 -6.221430284e-11)
(-0 7.299543726e-11 -8.086302588e-11)
(-0 1.538426571e-11 -1.486980753e-11)
(-0 4.766148109e-11 -4.088493933e-11)
(-0 2.247760705e-11 -1.733685607e-11)
(-0 1.443749616e-11 -1.011617702e-11)
(-0 1.182986665e-11 -7.593714001e-12)
(-0 1.445007913e-11 -8.557102575e-12)
(-0 6.829856496e-12 -3.753337077e-12)
(-0 3.806020746e-12 -1.950888072e-12)
(-0 1.986304464e-12 -9.53850982e-13)
(-0 7.047321208e-13 -3.182862376e-13)
(-0 5.00191405e-13 -2.131980535e-13)
(-0 3.166321898e-13 -1.277584967e-13)
(-0 1.209332778e-13 -4.63199491e-14)
(-0 5.59687879e-14 -2.040049164e-14)
(-0 3.595433116e-14 -1.249984376e-14)
(-0 1.751848388e-14 -5.821152704e-15)
(-0 1.711179196e-15 -5.444934801e-16)
(-0 6.834915396e-16 -2.086290853e-16)
(-0 1.809919521e-16 -5.308198434e-17)
(-0 1.809613878e-16 -5.107043489e-17)
(-0 7.155014863e-17 -1.945778428e-17)
(-0 3.083520608e-17 -8.090794401e-18)
(-0 1.242112451e-17 -3.148392635e-18)
(-0 1.629682142e-18 -3.994818077e-19)
(-0 2.011482831e-18 -4.772723671e-19)
(-0 2.589073963e-19 -5.95644695e-20)
(-0 1.165699616e-20 -2.607950629e-21)
(-0 2.178759612e-21 -4.728603818e-22)
(-0 0 -0)
(-0 0 -0)
(-0 0 -0)
(-0 0 -0)
(-0 -0 0)
(-0 -0 0)
(-0 -0 0)
(-0 -0 -0)
(-0 -1.391416792e-27 -3.263510899e-26)
(-0 -7.816232955e-18 -5.10729264e-17)
(-0 -5.80614773e-16 -1.897253445e-15)
(-0 -1.734823178e-15 -3.652154221e-15)
(-0 -3.603157339e-15 -5.57780366e-15)
(-0 -6.085546753e-07 -1.188132402e-06)
(-0 0.0001687454505 -0.3664772996)
(-0 -0.276431037 -5018.065139)
(-0 0.0001142091643 -4587.982402)
(-0 1.343430525e-06 -3.159889803e-06)
(-0 1.256664429e-10 -2.194137186e-10)
(-0 4.891921238e-11 -6.787847793e-11)
(-0 1.386228403e-10 -1.598323268e-10)
(-0 6.991559693e-11 -6.905989603e-11)
(-0 3.889730284e-11 -3.363488e-11)
(-0 3.064800879e-11 -2.357526597e-11)
(-0 5.393745739e-11 -3.736837391e-11)
(-0 2.65473626e-11 -1.67294647e-11)
(-0 2.065946482e-11 -1.193816251e-11)
(-0 1.488770034e-11 -7.942177984e-12)
(-0 1.268527804e-12 -6.283514885e-13)
(-0 1.056957047e-11 -4.885448243e-12)
(-0 1.089065219e-12 -4.717639165e-13)
(-0 7.388624988e-13 -3.011023935e-13)
(-0 1.184556635e-12 -4.556775143e-13)
(-0 1.880432462e-13 -6.849006586e-14)
(-0 1.371034505e-13 -4.741025634e-14)
(-0 2.218596797e-14 -7.30180806e-15)
(-0 3.052155188e-14 -9.582176962e-15)
(-0 1.691030536e-14 -5.07467225e-15)
(-0 8.06904231e-15 -2.31898209e-15)
(-0 6.429138809e-16 -1.772564933e-16)
(-0 2.76045042e-16 -7.313089973e-17)
(-0 3.604678669e-16 -9.189796895e-17)
(-0 9.985316763e-17 -2.453127512e-17)
(-0 3.541921588e-17 -8.396078492e-18)
(-0 2.336383088e-17 -5.350377227e-18)
(-0 1.110138307e-18 -2.458684466e-19)
(-0 2.154764131e-18 -4.620166807e-19)
(-0 6.232985022e-19 -1.295593946e-19)
(-0 3.115350428e-20 -6.287511893e-21)
(-0 3.407732965e-21 -6.655475706e-22)
(-0 0 -0)
(-0 0 -0)
(-0 0 -0)
(-0 0 -0)
(-0 -0 -0)
(-0 -0 0)
(-0 -0 -0)
(-0 -0 -0)
(-0 -1.030539218e-27 -1.814832638e-26)
(-0 -3.860163964e-20 -1.888196597e-19)
(-0 -2.673954733e-17 -6.466701325e-17)
(-0 -5.908343922e-16 -9.165413794e-16)
(-0 -1.590465043e-13 -1.789466185e-13)
(-0 -3.947264342e-11 -4.000688649e-11)
(-0 -6.332879053e-06 -0.3336649294)
(-0 -0.2260206329 -7108.346949)
(-0 0.0001389767185 -6619.970797)
(-0 5.591367427e-06 -1.101873987e-05)
(-0 1.13198907e-10 -1.691776562e-10)
(-0 1.22708775e-10 -1.478158707e-10)
(-0 8.35211662e-11 -8.433810615e-11)
(-0 1.423759966e-10 -1.238606221e-10)
(-0 9.277362664e-11 -7.092196498e-11)
(-0 1.64483814e-10 -1.1215102e-10)
(-0 3.238360011e-11 -1.992409278e-11)
(-0 6.209823551e-11 -3.479958983e-11)
(-0 2.111957452e-11 -1.086376494e-11)
(-0 1.846892467e-11 -8.77739006e-12)
(-0 1.54367198e-11 -6.815957781e-12)
(-0 5.930611578e-12 -2.444647771e-12)
(-0 2.732994792e-12 -1.056179075e-12)
(-0 1.191826675e-12 -4.334289183e-13)
(-0 1.678372617e-12 -5.762968965e-13)
(-0 8.115011361e-13 -2.638749973e-13)
(-0 2.748541928e-13 -8.486605968e-14)
(-0 5.922378226e-14 -1.740655681e-14)
(-0 8.484245001e-14 -2.378938692e-14)
(-0 3.248082063e-14 -8.706356074e-15)
(-0 2.789403847e-15 -7.161007574e-16)
(-0 3.556090306e-15 -8.758688535e-16)
(-0 8.117136005e-16 -1.921172245e-16)
(-0 4.858271654e-16 -1.106588174e-16)
(-0 8.574124627e-17 -1.882059039e-17)
(-0 9.092453253e-17 -1.925835363e-17)
(-0 2.195564046e-17 -4.492640424e-18)
(-0 5.40082859e-18 -1.068845054e-18)
(-0 2.458165586e-18 -4.70993849e-19)
(-0 1.086781409e-18 -2.01735086e-19)
(-0 8.94301383e-20 -1.60935875e-20)
(-0 6.951839945e-21 -1.210637931e-21)
(-0 6.319337075e-22 -1.068170029e-22)
(-0 0 -0)
(-0 0 -0)
(-0 0 -0)
(-0 0 -0)
(-0 -0 0)
(-0 -0 0)
(-0 -0 -0)
(-0 -2.985589844e-28 -4.034366571e-27)
(-0 -9.121736762e-25 -3.429457942e-24)
(-0 -2.70866621e-19 -5.039469817e-19)
(-0 -1.007658172e-16 -1.200986254e-16)
(-0 -1.523953192e-13 -1.377775938e-13)
(-0 -2.157399272e-11 -1.581397069e-11)
(-0 -0.0002781847139 -0.3175789641)
(-0 -0.1622502682 -9560.579958)
(-0 -4.215116503e-05 -9133.778559)
(-0 3.768862294e-05 -6.259016037e-05)
(-0 1.673041191e-10 -2.105907856e-10)
(-0 2.873329143e-10 -2.959368528e-10)
(-0 1.770257742e-10 -1.542710555e-10)
(-0 1.415614614e-10 -1.06921177e-10)
(-0 1.447839967e-10 -9.647934445e-11)
(-0 1.032911213e-10 -6.155983298e-11)
(-0 5.181419497e-11 -2.791932325e-11)
(-0 6.125414962e-11 -3.01056649e-11)
(-0 1.860904087e-11 -8.404112545e-12)
(-0 2.377197603e-11 -9.926676525e-12)
(-0 9.499391163e-12 -3.687599864e-12)
(-0 1.049748659e-11 -3.806105084e-12)
(-0 3.217519232e-12 -1.094101156e-12)
(-0 1.456305809e-12 -4.661451973e-13)
(-0 1.191438593e-12 -3.60159511e-13)
(-0 2.181303913e-13 -6.245583845e-14)
(-0 8.555178059e-14 -2.326355635e-14)
(-0 5.283681231e-14 -1.367806734e-14)
(-0 4.41099858e-14 -1.089494834e-14)
(-0 3.341430817e-14 -7.890409922e-15)
(-0 1.683514797e-14 -3.80777139e-15)
(-0 5.849827444e-15 -1.269489866e-15)