/*--------------------------------*- C++ -*----------------------------------*\
  =========                 |
  \\      /  F ield         | OpenFOAM: The Open Source CFD Toolbox
   \\    /   O peration     | Website:  https://openfoam.org
    \\  /    A nd           | Version:  6
     \\/     M anipulation  |
\*---------------------------------------------------------------------------*/
FoamFile
{
    version     2.0;
    format      ascii;
    class       volScalarField;
    location    "0.16";
    object      Num_divU;
}
// * * * * * * * * * * * * * * * * * * * * * * * * * * * * * * * * * * * * * //

dimensions      [0 0 -1 0 0 0 0];

internalField   nonuniform List<scalar> 
2500
(
-4.435743168e-07
-1.667523507e-07
5.256066912e-07
9.146755614e-07
7.441562417e-07
1.143105474e-07
1.643238173e-07
4.406570475e-07
2.191686995e-07
-7.240927652e-22
-6.459926455e-17
-1.452279422e-16
-2.209960971e-16
-2.947586123e-16
-3.676415651e-16
-4.398175262e-16
-5.112220783e-16
-5.817465077e-16
-6.512757984e-16
-7.196948268e-16
-7.868907659e-16
-8.527545783e-16
-9.171817914e-16
-9.800730276e-16
-1.041334009e-15
-1.100875647e-15
-1.158613951e-15
-1.214470212e-15
-1.268370971e-15
-1.320248118e-15
-1.370038775e-15
-1.417685202e-15
-1.463134849e-15
-1.506339969e-15
-1.547257662e-15
-1.585849451e-15
-1.62208123e-15
-1.655922905e-15
-1.687348239e-15
-1.716334427e-15
-1.742862099e-15
-1.766914843e-15
-1.788479136e-15
-1.807544121e-15
-1.82410155e-15
-1.838145688e-15
-1.849673399e-15
-1.858683957e-15
-1.865176844e-15
-1.869140051e-15
2.142609177e-07
4.629525851e-07
8.060161856e-07
7.237686752e-07
6.305621821e-07
1.111232367e-07
-3.052756694e-07
-3.674066442e-07
1.866018684e-07
-1.289449138e-16
-2.70203233e-16
-4.094190645e-16
-5.420080273e-16
-6.723010215e-16
-8.011845768e-16
-9.286499689e-16
-1.054518983e-15
-1.17858688e-15
-1.300648206e-15
-1.420502249e-15
-1.537955342e-15
-1.652822032e-15
-1.764925703e-15
-1.874098742e-15
-1.980182799e-15
-2.083028763e-15
-2.182496884e-15
-2.278456808e-15
-2.370787597e-15
-2.459377761e-15
-2.544124922e-15
-2.624935832e-15
-2.701725911e-15
-2.774419046e-15
-2.842947115e-15
-2.90724964e-15
-2.967273383e-15
-3.022971768e-15
-3.074304612e-15
-3.121237588e-15
-3.163741835e-15
-3.201793697e-15
-3.235374544e-15
-3.264470792e-15
-3.289074757e-15
-3.309186766e-15
-3.324821154e-15
-3.336024538e-15
-3.342936536e-15
-1.475661964e-15
3.590737732e-07
-4.906942008e-07
-1.054782115e-07
5.498706559e-07
8.058916145e-07
7.687298017e-07
5.4549232e-07
-2.863505281e-07
1.835836648e-07
-1.05621632e-16
-2.250678902e-16
-3.4534054e-16
-4.605363871e-16
-5.740430808e-16
-6.864208077e-16
-7.975995654e-16
-9.074099817e-16
-1.015670709e-15
-1.122201708e-15
-1.226827297e-15
-1.329377889e-15
-1.429691123e-15
-1.52761222e-15
-1.622994268e-15
-1.715698401e-15
-1.805593846e-15
-1.892557907e-15
-1.976476195e-15
-2.057242551e-15
-2.134758979e-15
-2.208935589e-15
-2.279690382e-15
-2.346948976e-15
-2.410644417e-15
-2.470716722e-15
-2.527112651e-15
-2.57978522e-15
-2.628693382e-15
-2.673801563e-15
-2.715079276e-15
-2.752500861e-15
-2.786044873e-15
-2.815694082e-15
-2.84143498e-15
-2.863257687e-15
-2.881155368e-15
-2.895122151e-15
-2.905142901e-15
-2.911146737e-15
-1.437561575e-15
1.164561298e-06
3.262762457e-07
-1.449661596e-07
3.141779021e-08
-2.03209555e-07
-5.230161913e-08
3.899078496e-07
-2.404153476e-07
4.660655152e-09
-1.039514755e-16
-2.209985828e-16
-3.392678474e-16
-4.527318624e-16
-5.646156429e-16
-6.75410397e-16
-7.850284214e-16
-8.932992754e-16
-1.000044642e-15
-1.105087632e-15
-1.208255047e-15
-1.309379396e-15
-1.408300184e-15
-1.504864489e-15
-1.598927245e-15
-1.690351281e-15
-1.779007488e-15
-1.864774714e-15
-1.947540047e-15
-2.027198708e-15
-2.103653926e-15
-2.176817058e-15
-2.246607107e-15
-2.312950714e-15
-2.37578182e-15
-2.435041285e-15
-2.490676479e-15
-2.542641125e-15
-2.59089459e-15
-2.635401752e-15
-2.676132341e-15
-2.713060771e-15
-2.746165497e-15
-2.775428676e-15
-2.800835684e-15
-2.822374413e-15
-2.840034111e-15
-2.853802398e-15
-2.863659902e-15
-2.869571269e-15
-1.434109447e-15
1.041923317e-06
6.830269281e-07
3.514749244e-07
4.57847594e-07
-2.684025082e-07
-6.919635232e-07
-1.79337651e-07
2.143923044e-07
-9.45532787e-08
-1.038453418e-16
-2.206853264e-16
-3.387636065e-16
-4.52061184e-16
-5.637957981e-16
-6.744523275e-16
-7.839380851e-16
-8.9207961e-16
-9.986981998e-16
-1.103617564e-15
-1.206664942e-15
-1.307673015e-15
-1.406481018e-15
-1.502935928e-15
-1.596892555e-15
-1.688213641e-15
-1.776769998e-15
-1.862440541e-15
-1.94511238e-15
-2.024680691e-15
-2.101048892e-15
-2.174128235e-15
-2.243837974e-15
-2.310104763e-15
-2.3728626e-15
-2.432052458e-15
-2.487621768e-15
-2.539524267e-15
-2.587719372e-15
-2.632171895e-15
-2.672851502e-15
-2.709732304e-15
-2.742792473e-15
-2.772013495e-15
-2.797379891e-15
-2.818878146e-15
-2.836495845e-15
-2.850219887e-15
-2.860034682e-15
-2.865922308e-15
-1.433914128e-15
3.859737786e-07
3.75334122e-07
5.918705217e-07
1.093452258e-06
4.500630891e-07
-5.448632261e-07
-8.514719201e-07
1.271234372e-07
1.741663095e-08
-1.038439594e-16
-2.206654361e-16
-3.38738783e-16
-4.520283083e-16
-5.637503547e-16
-6.743971044e-16
-7.838789027e-16
-8.920204563e-16
-9.986412136e-16
-1.103564381e-15
-1.206617222e-15
-1.307632205e-15
-1.406448232e-15
-1.502911849e-15
-1.596877389e-15
-1.688207298e-15
-1.776772154e-15
-1.862450715e-15
-1.945129822e-15
-2.024704641e-15
-2.101078459e-15
-2.174162545e-15
-2.243876035e-15
-2.310145629e-15
-2.372905335e-15
-2.43209607e-15
-2.487665372e-15
-2.5395669e-15
-2.587760018e-15
-2.632209543e-15
-2.672884966e-15
-2.709760228e-15
-2.742813137e-15
-2.77202486e-15
-2.797379257e-15
-2.818862376e-15
-2.836461445e-15
-2.8501642e-15
-2.85995849e-15
-2.865833049e-15
-1.434014828e-15
-1.810248007e-07
-4.344896678e-07
5.376600454e-08
7.123843033e-07
8.562080346e-07
1.633031913e-07
-7.343042794e-07
-5.017224542e-07
4.127773395e-08
-1.038536988e-16
-2.20650672e-16
-3.387156096e-16
-4.520081922e-16
-5.637316318e-16
-6.743783533e-16
-7.838641169e-16
-8.920146739e-16
-9.986479616e-16
-1.103586064e-15
-1.206655852e-15
-1.30768949e-15
-1.406525433e-15
-1.503009672e-15
-1.596996038e-15
-1.688346581e-15
-1.7769314e-15
-1.862628977e-15
-1.945326054e-15
-2.024917606e-15
-2.101306767e-15
-2.174404799e-15
-2.244130769e-15
-2.310411382e-15
-2.373180647e-15
-2.432379487e-15
-2.487955435e-15
-2.539862103e-15
-2.588058961e-15
-2.632510649e-15
-2.673186598e-15
-2.710060648e-15
-2.743110394e-15
-2.772316786e-15
-2.79766344e-15
-2.81913632e-15
-2.836722973e-15
-2.85041221e-15
-2.860193914e-15
-2.86605995e-15
-1.434131621e-15
-1.086929341e-07
-7.159645248e-07
-5.223588585e-07
-2.053260804e-07
2.066322905e-07
1.686003641e-07
6.171052287e-08
-4.482389089e-07
-1.275532981e-07
-1.03853864e-16
-2.206327001e-16
-3.386678279e-16
-4.519450494e-16
-5.636633276e-16
-6.743078952e-16
-7.837956525e-16
-8.91953895e-16
-9.985997191e-16
-1.103553768e-15
-1.206642037e-15
-1.307696217e-15
-1.406554318e-15
-1.503061629e-15
-1.597071428e-15
-1.688445149e-15
-1.777052513e-15
-1.862771648e-15
-1.945489008e-15
-2.025099402e-15
-2.101505975e-15
-2.174619785e-15
-2.244359953e-15
-2.310653129e-15
-2.37343334e-15
-2.432641535e-15
-2.488225267e-15
-2.540138182e-15
-2.588339698e-15
-2.632794445e-15
-2.673471837e-15
-2.710345669e-15
-2.743393403e-15
-2.77259592e-15
-2.797936848e-15
-2.81940231e-15
-2.836980177e-15
-2.850660243e-15
-2.860433758e-15
-2.866294124e-15
-1.434236868e-15
4.907427977e-07
-1.181579023e-07
-4.272006442e-07
-2.734993654e-07
-3.576442213e-07
-5.549479364e-07
3.018032801e-08
2.920525899e-07
-1.552755703e-07
-1.038320541e-16
-2.205905711e-16
-3.385928062e-16
-4.518405489e-16
-5.635405507e-16
-6.741758491e-16
-7.836607598e-16
-8.918238477e-16
-9.984812709e-16
-1.103451837e-15
-1.206560073e-15
-1.307636662e-15
-1.406518935e-15
-1.503051453e-15
-1.597086852e-15
-1.688485864e-15
-1.77711777e-15
-1.862860316e-15
-1.945599692e-15
-2.025230503e-15
-2.101655775e-15
-2.17478659e-15
-2.244541964e-15
-2.310848654e-15
-2.373640621e-15
-2.432858877e-15
-2.488451044e-15
-2.54037076e-15
-2.588577497e-15
-2.633035922e-15
-2.673715419e-15
-2.710589765e-15
-2.74363641e-15
-2.772836305e-15
-2.798173164e-15
-2.819633306e-15
-2.837205084e-15
-2.850878893e-15
-2.860646957e-15
-2.866503496e-15
-1.434327154e-15
7.872854159e-07
5.173226785e-07
-7.928985716e-08
1.261079122e-07
1.439292428e-07
-8.232174983e-07
-5.787935315e-07
3.15986004e-07
2.412157797e-08
-1.037979128e-16
-2.205041985e-16
-3.384660161e-16
-4.516800147e-16
-5.633539134e-16
-6.739750086e-16
-7.834535169e-16
-8.916188005e-16
-9.982870254e-16
-1.103275131e-15
-1.206405512e-15
-1.307507244e-15
-1.40641656e-15
-1.502977163e-15
-1.597040837e-15
-1.688467681e-15
-1.777126433e-15
-1.862894407e-15
-1.945657544e-15
-2.025310346e-15
-2.101755632e-15
-2.174904593e-15
-2.244676154e-15
-2.310997141e-15
-2.373801571e-15
-2.433030562e-15
-2.488631723e-15
-2.540558817e-15
-2.58877131e-15
-2.633233951e-15
-2.673916176e-15
-2.71079173e-15
-2.74383825e-15
-2.773036655e-15
-2.798370865e-15
-2.819827404e-15
-2.837395077e-15
-2.85106468e-15
-2.860829081e-15
-2.866683127e-15
-1.434401467e-15
3.48791091e-07
3.627699838e-07
-1.618279147e-07
2.354392229e-07
4.080592252e-07
-2.147302048e-07
-4.542341014e-07
-7.764560592e-08
1.117617735e-08
-1.037553345e-16
-2.203916666e-16
-3.382868287e-16
-4.514533149e-16
-5.630905492e-16
-6.736929244e-16
-7.831640984e-16
-8.913316336e-16
-9.980115321e-16
-1.103019327e-15
-1.206175073e-15
-1.30730577e-15
-1.406246033e-15
-1.502838421e-15
-1.596933745e-15
-1.688391419e-15
-1.777079584e-15
-1.862875242e-15
-1.945664065e-15
-2.025340405e-15
-2.101807109e-15
-2.174975269e-15
-2.244763956e-15
-2.311100017e-15
-2.373917628e-15
-2.433157876e-15
-2.488768557e-15
-2.54070351e-15
-2.588922264e-15
-2.633389657e-15
-2.674075177e-15
-2.710952686e-15
-2.743999841e-15
-2.773197754e-15
-2.798530497e-15
-2.819984802e-15
-2.837549806e-15
-2.851216691e-15
-2.860978725e-15
-2.866831074e-15
-1.434459298e-15
-6.70475841e-08
9.694587224e-08
-2.728834906e-07
-1.519482533e-07
1.590566299e-07
3.578942136e-07
-1.006822183e-07
5.408934025e-09
6.031299663e-09
-1.036918984e-16
-2.202398719e-16
-3.380486879e-16
-4.511511614e-16
-5.627385719e-16
-6.733147166e-16
-7.827783395e-16
-8.909513378e-16
-9.976471401e-16
-1.10267926e-15
-1.205865444e-15
-1.307030373e-15
-1.406006698e-15
-1.502635484e-15
-1.596766525e-15
-1.688258509e-15
-1.776979018e-15
-1.862804753e-15
-1.945621235e-15
-2.025322764e-15
-2.101812124e-15
-2.17500055e-15
-2.244807227e-15
-2.311159025e-15
-2.373990344e-15
-2.433242392e-15
-2.48886304e-15
-2.540806273e-15
-2.589031713e-15
-2.633504301e-15
-2.674193622e-15
-2.711073677e-15
-2.744122213e-15
-2.773320439e-15
-2.798652676e-15
-2.820105802e-15
-2.8376692e-15
-2.851334413e-15
-2.861094947e-15
-2.866946235e-15
-1.434500295e-15
-1.411092462e-07
-1.815652038e-08
-1.65197043e-07
-1.897979874e-07
-5.981683073e-08
1.028475934e-07
-1.388799485e-07
8.792727712e-08
-2.997776195e-08
-1.036058687e-16
-2.200355051e-16
-3.377353263e-16
-4.507569088e-16
-5.622852728e-16
-6.728272191e-16
-7.822822103e-16
-8.904654052e-16
-9.971844757e-16
-1.102248908e-15
-1.2054733e-15
-1.306679634e-15
-1.405698492e-15
-1.502369344e-15
-1.596540865e-15
-1.688071076e-15
-1.776827126e-15
-1.862685497e-15
-1.945531614e-15
-2.025259809e-15
-2.101773068e-15
-2.174982654e-15
-2.244807985e-15
-2.311176112e-15
-2.374021569e-15
-2.433285751e-15
-2.488916677e-15
-2.540868495e-15
-2.589100962e-15
-2.633579105e-15
-2.674272642e-15
-2.711155725e-15
-2.744206199e-15
-2.773405434e-15
-2.798737851e-15
-2.820190619e-15
-2.837753247e-15
-2.851417522e-15
-2.86117718e-15
-2.86702782e-15
-1.434524178e-15
3.752201549e-08
4.572929722e-08
-4.219101636e-08
1.775323178e-08
1.120548259e-08
2.363207217e-07
-9.015018715e-08
1.719462177e-07
-9.798724426e-08
-1.034958951e-16
-2.19766497e-16
-3.373239516e-16
-4.502405757e-16
-5.617052311e-16
-6.722118871e-16
-7.816608805e-16
-8.898617536e-16
-9.966146017e-16
-1.101722548e-15
-1.204995798e-15
-1.306253011e-15
-1.405322435e-15
-1.502042058e-15
-1.596259455e-15
-1.687832149e-15
-1.776627057e-15
-1.862520519e-15
-1.945398149e-15
-2.025154437e-15
-2.101692544e-15
-2.174924042e-15
-2.244768514e-15
-2.311153318e-15
-2.374013173e-15
-2.433289676e-15
-2.488931092e-15
-2.540891638e-15
-2.5891313e-15
-2.633615231e-15
-2.674313309e-15
-2.711199737e-15
-2.74425255e-15
-2.773453279e-15
-2.79878646e-15
-2.820239416e-15
-2.837801877e-15
-2.851465752e-15
-2.861224957e-15
-2.867075245e-15
-1.43453075e-15
1.272399089e-07
1.093036461e-07
2.842209243e-08
1.078103439e-07
1.088355308e-07
2.973227185e-07
2.119604365e-08
4.845896079e-07
-1.110003978e-07
-1.033544244e-16
-2.194141296e-16
-3.367860232e-16
-4.495657153e-16
-5.609585444e-16
-6.714364515e-16
-7.808916214e-16
-8.891253056e-16
-9.95928079e-16
-1.101095327e-15
-1.204431435e-15
-1.305751436e-15
-1.40488112e-15
-1.501657041e-15
-1.595926218e-15
-1.687545779e-15
-1.776382747e-15
-1.862313685e-15
-1.945224462e-15
-2.025009917e-15
-2.101573592e-15
-2.174827403e-15
-2.244691282e-15
-2.311092865e-15
-2.373967157e-15
-2.433256e-15
-2.488907804e-15
-2.54087712e-15
-2.58912401e-15
-2.633613797e-15
-2.674316529e-15
-2.711206545e-15
-2.74426197e-15
-2.77346451e-15
-2.798798811e-15
-2.820252374e-15
-2.837815041e-15
-2.851478926e-15
-2.861237982e-15
-2.867088124e-15
-1.434519845e-15
8.891966408e-08
1.140180414e-07
7.935366495e-08
1.498703526e-07
1.491009598e-07
1.196726538e-07
2.309525034e-07
5.389151542e-07
9.272911252e-08
-1.031687721e-16
-2.189436463e-16
-3.360750154e-16
-4.486916688e-16
-5.600048793e-16
-6.704665418e-16
-7.799499427e-16
-8.88240911e-16
-9.951172096e-16
-1.100364694e-15
-1.203781302e-15
-1.305178208e-15
-1.404379109e-15
-1.501219643e-15
-1.595546544e-15
-1.687217288e-15
-1.776099223e-15
-1.862069554e-15
-1.945014652e-15
-2.024829954e-15
-2.101419506e-15
-2.174695693e-15
-2.244578867e-15
-2.310997013e-15
-2.373885454e-15
-2.433186388e-15
-2.488848416e-15
-2.540826266e-15
-2.589080248e-15
-2.633575834e-15
-2.674283181e-15
-2.711176829e-15
-2.744235006e-15
-2.773439513e-15
-2.798775193e-15
-2.82022962e-15
-2.837792742e-15
-2.851456825e-15
-2.86121591e-15
-2.86706603e-15
-1.434491266e-15
3.589508909e-08
1.140552416e-07
1.214374322e-07
1.927487762e-07
2.644935513e-07
-6.182118126e-09
1.572558577e-07
-2.116714748e-07
3.033493521e-07
-1.029152403e-16
-2.183023003e-16
-3.351111819e-16
-4.47542343e-16
-5.587816666e-16
-6.69256212e-16
-7.788067982e-16
-8.871936337e-16
-9.941770467e-16
-1.09953205e-15
-1.203050452e-15
-1.304540252e-15
-1.403824018e-15
-1.500737384e-15
-1.595127711e-15
-1.686853241e-15
-1.775782479e-15
-1.861793453e-15
-1.944773452e-15
-2.024618691e-15
-2.101233882e-15
-2.174532023e-15
-2.244433951e-15
-2.310868132e-15
-2.373770203e-15
-2.433082658e-15
-2.488754424e-15
-2.540740411e-15
-2.58900111e-15
-2.633502228e-15
-2.674214058e-15
-2.711111184e-15
-2.744172076e-15
-2.773378618e-15
-2.79871574e-15
-2.82017113e-15
-2.837734875e-15
-2.851399271e-15
-2.86115853e-15
-2.86700863e-15
-1.434444856e-15
1.533257388e-08
1.156001392e-07
1.407302137e-07
2.2219744e-07
4.224765468e-07
2.053412913e-07
2.767976102e-07
-1.20355882e-07
3.459713724e-07
-1.025653574e-16
-2.174022572e-16
-3.337798898e-16
-4.460108024e-16
-5.572095017e-16
-6.677535964e-16
-7.774336314e-16
-8.859724488e-16
-9.931081544e-16
-1.098604617e-15
-1.202249201e-15
-1.3038489e-15
-1.403227009e-15
-1.500220616e-15
-1.594678894e-15
-1.686461834e-15
-1.77543954e-15
-1.861491436e-15
-1.94450604e-15
-2.024380533e-15
-2.10102052e-15
-2.174339618e-15
-2.244259343e-15
-2.310708554e-15
-2.373623323e-15
-2.432946476e-15
-2.488627217e-15
-2.540620708e-15
-2.588887641e-15
-2.633393829e-15
-2.674109772e-15
-2.711010161e-15
-2.744073593e-15
-2.773282033e-15
-2.798620557e-15
-2.82007689e-15
-2.83764129e-15
-2.851306044e-15
-2.86106547e-15
-2.866915592e-15
-1.434380456e-15
1.413775744e-08
1.126303081e-07
1.257791539e-07
1.671038565e-07
3.769249052e-07
4.476722614e-07
3.298666117e-07
-4.426879468e-07
2.358976845e-07
-1.020803231e-16
-2.160930548e-16
-3.318893015e-16
-4.439339417e-16
-5.551853445e-16
-6.659074459e-16
-7.758133648e-16
-8.84580086e-16
-9.919235404e-16
-1.097599725e-15
-1.201395695e-15
-1.303121251e-15
-1.402603305e-15
-1.499682552e-15
-1.594211401e-15
-1.68605255e-15
-1.775078355e-15
-1.861170174e-15
-1.94421796e-15
-2.024120139e-15
-2.10078326e-15
-2.174121735e-15
-2.244057687e-15
-2.310520534e-15
-2.373446724e-15
-2.432779431e-15
-2.488468146e-15
-2.540468242e-15
-2.588740637e-15
-2.63325128e-15
-2.673970825e-15
-2.710874087e-15
-2.743939748e-15
-2.773149862e-15
-2.798489605e-15
-2.819946835e-15
-2.837511785e-15
-2.851176853e-15
-2.860936406e-15
-2.866786498e-15
-1.434297806e-15
4.696363882e-09
9.362035917e-08
1.287519031e-07
1.196678516e-07
1.646211658e-07
4.437198316e-07
4.39557252e-07
-1.469161e-07
-8.34229389e-09
-1.013796658e-16
-2.140807017e-16
-3.291115048e-16
-4.410731699e-16
-5.525792703e-16
-6.636701874e-16
-7.739462384e-16
-8.830392286e-16
-9.906534205e-16
-1.096547789e-15
-1.200517466e-15
-1.302380868e-15
-1.401972521e-15
-1.499139286e-15
-1.593738284e-15
-1.685635999e-15
-1.774707617e-15
-1.860836694e-15
-1.94391499e-15
-2.023842238e-15
-2.100525987e-15
-2.173881544e-15
-2.243831611e-15
-2.310306178e-15
-2.373242127e-15
-2.432582919e-15
-2.488278303e-15
-2.540283916e-15
-2.588560804e-15
-2.633075109e-15
-2.673797583e-15
-2.710703162e-15
-2.743770597e-15
-2.772982077e-15
-2.798322786e-15
-2.819780668e-15
-2.837346014e-15
-2.851011305e-15
-2.860770896e-15
-2.866620923e-15
-1.434196605e-15
-8.576208591e-09
3.370617388e-08
1.041943813e-07
1.325061542e-07
2.508990448e-08
2.109879134e-07
2.416545661e-07
4.811216991e-07
-4.368670198e-08
-1.003305215e-16
-2.107150418e-16
-3.248598677e-16
-4.371186046e-16
-5.492865835e-16
-6.610450164e-16
-7.718794835e-16
-8.814079392e-16
-9.893524265e-16
-1.095495299e-15
-1.199652177e-15
-1.301657649e-15
-1.40135814e-15
-1.498609132e-15
-1.593273935e-15
-1.685223478e-15
-1.774336181e-15
-1.860498117e-15
-1.943602756e-15
-2.023551269e-15
-2.100252318e-15
-2.173621931e-15
-2.243583479e-15
-2.31006743e-15
-2.373011055e-15
-2.432358114e-15
-2.488058628e-15
-2.540068406e-15
-2.588348664e-15
-2.63286564e-15
-2.673590248e-15
-2.710497428e-15
-2.743566111e-15
-2.772778481e-15
-2.798119782e-15
-2.81957808e-15
-2.837143603e-15
-2.85080893e-15
-2.860568444e-15
-2.866418258e-15
-1.434076573e-15
3.770656868e-09
-2.049660787e-08
-1.442361153e-08
6.766638413e-08
-1.663699175e-08
-4.882274879e-09
-2.232742453e-07
-9.975320261e-08
-9.74011043e-09
-9.86836058e-17
-2.044196706e-16
-3.181094329e-16
-4.31734241e-16
-5.453110967e-16
-6.581471093e-16
-7.697407702e-16
-8.797945714e-16
-9.881045348e-16
-1.09450505e-15
-1.19884644e-15
-1.300986161e-15
-1.400786001e-15
-1.498111562e-15
-1.592833097e-15
-1.684826237e-15
-1.773972797e-15
-1.860161159e-15
-1.94328657e-15
-2.023251479e-15
-2.099965519e-15
-2.173345493e-15
-2.243315311e-15
-2.309805823e-15
-2.372754713e-15
-2.432105947e-15
-2.487809758e-15
-2.53982215e-15
-2.588104452e-15
-2.632623e-15
-2.673348733e-15
-2.710256805e-15
-2.743326046e-15
-2.772538763e-15
-2.797880285e-15
-2.819338542e-15
-2.83690401e-15
-2.850569129e-15
-2.86032841e-15
-2.866177911e-15
-1.433937311e-15
3.018041992e-08
1.175365346e-08
-8.421598195e-08
-1.937234017e-08
3.189757794e-09
-3.41198561e-08
-1.951523103e-07
-3.591636601e-08
-1.30923305e-08
-9.59695447e-17
-1.907491466e-16
-3.074078972e-16
-4.249241548e-16
-5.409932929e-16
-6.55299847e-16
-7.677691901e-16
-8.783631752e-16
-9.870201345e-16
-1.09365176e-15
-1.198151529e-15
-1.300402355e-15
-1.400281739e-15
-1.497665222e-15
-1.592429505e-15
-1.684454628e-15
-1.773625183e-15
-1.859831706e-15
-1.942970902e-15
-2.022946317e-15
-2.099668288e-15
-2.173054237e-15
-2.243028609e-15
-2.309522501e-15
-2.372473904e-15
-2.431826964e-15
-2.487532104e-15
-2.539545347e-15
-2.587828219e-15
-2.632347059e-15
-2.673072891e-15
-2.709980891e-15
-2.743049964e-15
-2.772262394e-15
-2.797603566e-15
-2.819061456e-15
-2.836626496e-15
-2.850291202e-15
-2.86005001e-15
-2.865899045e-15
-1.43377839e-15
1.139082849e-08
3.91026126e-08
-1.195211534e-07
-1.396312238e-07
-1.018386858e-08
-5.473573595e-08
-1.545224853e-07
-1.058962135e-07
-3.059379841e-08
-9.134603841e-17
-1.553446546e-16
-2.927767533e-16
-4.181685855e-16
-5.373669637e-16
-6.531009661e-16
-7.663041385e-16
-8.773115309e-16
-9.862187419e-16
-1.093010134e-15
-1.197615802e-15
-1.299938618e-15
-1.399867662e-15
-1.497285853e-15
-1.592074581e-15
-1.684116866e-15
-1.773299541e-15
-1.859514397e-15
-1.942659285e-15
-2.022638335e-15
-2.099362535e-15
-2.172749671e-15
-2.242724419e-15
-2.3092182e-15
-2.372169085e-15
-2.431521408e-15
-2.487225603e-15
-2.539237884e-15
-2.587519646e-15
-2.632037445e-15
-2.672762252e-15
-2.709669206e-15
-2.742737271e-15
-2.771948754e-15
-2.797289036e-15
-2.818746069e-15
-2.83631033e-15
-2.849974279e-15
-2.859732411e-15
-2.865580838e-15
-1.433599273e-15
-3.292601619e-08
4.766322059e-08
-8.307686528e-08
-2.346021666e-07
-1.302119929e-07
-1.038138147e-07
-1.436240569e-07
-1.135024216e-07
-5.948929903e-08
-3.483414623e-13
-1.503155291e-16
-2.840872794e-16
-4.154182502e-16
-5.360351246e-16
-6.522305576e-16
-7.656620943e-16
-8.768029898e-16
-9.857923413e-16
-1.092635602e-15
-1.197274311e-15
-1.299617819e-15
-1.399559278e-15
-1.496984235e-15
-1.591775878e-15
-1.683818495e-15
-1.772999762e-15
-1.859212097e-15
-1.942353688e-15
-2.022329007e-15
-2.099049251e-15
-2.172432357e-15
-2.242403101e-15
-2.308893013e-15
-2.371840202e-15
-2.431189056e-15
-2.486890016e-15
-2.538899279e-15
-2.587178315e-15
-2.631693577e-15
-2.672416059e-15
-2.70932094e-15
-2.742387112e-15
-2.771596948e-15
-2.796935698e-15
-2.818391391e-15
-2.835954453e-15
-2.849617375e-15
-2.859374605e-15
-2.865222226e-15
-1.433399396e-15
-7.652238656e-08
1.558884477e-08
1.205881992e-08
-1.487195146e-07
-1.67187844e-07
-1.517302338e-07
-1.733535277e-07
-1.257939512e-07
-1.817422004e-08
-2.379973832e-13
-1.350106057e-16
-2.91039239e-16
-4.18657219e-16
-5.374498825e-16
-6.528587767e-16
-7.659294807e-16
-8.768868435e-16
-9.857711879e-16
-1.092547622e-15
-1.197139868e-15
-1.299448614e-15
-1.399362439e-15
-1.496764383e-15
-1.591536225e-15
-1.683561496e-15
-1.772727247e-15
-1.858925673e-15
-1.942054652e-15
-2.022018564e-15
-2.098728421e-15
-2.172102109e-15
-2.242064318e-15
-2.308546511e-15
-2.371486695e-15
-2.430829283e-15
-2.486524571e-15
-2.53852877e-15
-2.586803285e-15
-2.631314532e-15
-2.672033413e-15
-2.708935153e-15
-2.74199855e-15
-2.771205909e-15
-2.796542515e-15
-2.817996372e-15
-2.8355578e-15
-2.849219351e-15
-2.858975381e-15
-2.864822066e-15
-1.433178111e-15
-8.927061843e-08
-6.165846507e-08
-9.088945685e-09
-7.837440374e-08
-1.17007409e-07
-1.250371384e-07
-1.570006265e-07
-1.138062659e-07
-1.059537601e-08
-1.290640553e-22
-1.737838726e-16
-3.050751224e-16
-4.243984216e-16
-5.403955603e-16
-6.545375762e-16
-7.669253771e-16
-8.774820113e-16
-9.861153557e-16
-1.09272505e-15
-1.197200619e-15
-1.29942394e-15
-1.399272656e-15
-1.496623219e-15
-1.591353393e-15
-1.68334401e-15
-1.772480508e-15
-1.858653821e-15
-1.941761046e-15
-2.02170595e-15
-2.098399063e-15
-2.171757975e-15
-2.241707086e-15
-2.308177635e-15
-2.371107569e-15
-2.430440975e-15
-2.486128228e-15
-2.538125278e-15
-2.586393471e-15
-2.630899166e-15
-2.671613197e-15
-2.70851065e-15
-2.741570314e-15
-2.770774433e-15
-2.79610825e-15
-2.817559678e-15
-2.835119082e-15
-2.848778906e-15
-2.858533534e-15
-2.864379066e-15
-1.432934708e-15
-5.089504446e-08
-5.801516816e-08
-2.618563732e-08
-4.283121681e-08
-6.151805403e-08
-5.329651421e-08
-3.761456781e-08
9.157808471e-09
9.871675258e-09
-7.791063476e-17
-1.950462534e-16
-3.143928138e-16
-4.297089747e-16
-5.4376323e-16
-6.567365246e-16
-7.683742041e-16
-8.784378776e-16
-9.867385186e-16
-1.093116147e-15
-1.197424328e-15
-1.299522885e-15
-1.399275841e-15
-1.496550921e-15
-1.591220204e-15
-1.683160776e-15
-1.772255428e-15
-1.858393267e-15
-1.941470087e-15
-2.021388755e-15
-2.098059032e-15
-2.171397991e-15
-2.241329639e-15
-2.307784807e-15
-2.370701197e-15
-2.430022717e-15
-2.485699493e-15
-2.537687349e-15
-2.585947449e-15
-2.630446089e-15
-2.671153935e-15
-2.708045992e-15
-2.741101035e-15
-2.770301122e-15
-2.795631473e-15
-2.817079975e-15
-2.834636892e-15
-2.848294653e-15
-2.85804759e-15
-2.863891792e-15
-1.432668428e-15
-1.993900485e-08
-2.260938513e-08
-1.115748314e-08
-9.603934548e-09
-1.862431615e-08
-3.288975811e-08
4.101409631e-08
-1.985251852e-07
-4.082151328e-08
-9.082248004e-17
-2.037902747e-16
-3.206123424e-16
-4.342202294e-16
-5.470249338e-16
-6.590686911e-16
-7.70025163e-16
-8.795959186e-16
-9.875394553e-16
-1.093655039e-15
-1.197767066e-15
-1.299715571e-15
-1.399351125e-15
-1.496532588e-15
-1.591125745e-15
-1.683003459e-15
-1.772045533e-15
-1.858138839e-15
-1.941177651e-15
-2.021063525e-15
-2.097705388e-15
-2.171019583e-15
-2.240929603e-15
-2.307365876e-15
-2.370265629e-15
-2.429572592e-15
-2.485236581e-15
-2.537213212e-15
-2.585463582e-15
-2.629953641e-15
-2.670654059e-15
-2.707539661e-15
-2.740589101e-15
-2.769784378e-15
-2.795110643e-15
-2.816555664e-15
-2.83410966e-15
-2.847765014e-15
-2.857516003e-15
-2.863358722e-15
-1.432378428e-15
-6.116908721e-09
8.330432551e-09
2.67523422e-08
5.860378185e-08
6.252492814e-08
4.30954206e-08
2.664584959e-07
5.105116101e-07
4.478118252e-08
-9.581349338e-17
-2.088862558e-16
-3.251133206e-16
-4.379097713e-16
-5.499231316e-16
-6.612851651e-16
-7.716863607e-16
-8.808190977e-16
-9.884226284e-16
-1.094274968e-15
-1.19818178e-15
-1.29996832e-15
-1.399474147e-15
-1.496550139e-15
-1.591056443e-15
-1.682861721e-15
-1.771842706e-15
-1.857884106e-15
-1.940878344e-15
-2.020725767e-15
-2.097334298e-15
-2.170619446e-15
-2.240504078e-15
-2.306918115e-15
-2.369798418e-15
-2.429088289e-15
-2.484737366e-15
-2.536700935e-15
-2.584939844e-15
-2.629419931e-15
-2.670111714e-15
-2.706989803e-15
-2.740032769e-15
-2.769222513e-15
-2.79454402e-15
-2.815985052e-15
-2.833535717e-15
-2.847188346e-15
-2.856937173e-15
-2.862778197e-15
-1.432063831e-15
3.78278885e-09
2.940020479e-08
5.718579897e-08
1.322582988e-07
1.631921194e-07
8.843934787e-08
1.014837678e-07
1.130031655e-07
2.087334293e-07
-9.851973942e-17
-2.122064278e-16
-3.283925993e-16
-4.408306499e-16
-5.523689687e-16
-6.632585819e-16
-7.732356943e-16
-8.820063517e-16
-9.893097657e-16
-1.094916963e-15
-1.198624293e-15
-1.30024792e-15
-1.399619757e-15
-1.49658448e-15
-1.590997499e-15
-1.682723924e-15
-1.771637756e-15
-1.857621514e-15
-1.94056606e-15
-2.020370375e-15
-2.096941373e-15
-2.170193764e-15
-2.240049662e-15
-2.306438547e-15
-2.369296816e-15
-2.428567348e-15
-2.484199448e-15
-2.536148196e-15
-2.584374161e-15
-2.628842968e-15
-2.669524884e-15
-2.706394508e-15
-2.739430157e-15
-2.768613638e-15
-2.793929822e-15
-2.815366354e-15
-2.832913282e-15
-2.846562863e-15
-2.85630927e-15
-2.862148456e-15
-1.431723705e-15
1.90626989e-08
5.719760927e-08
7.953756329e-08
1.47611736e-07
2.62153871e-07
3.323981635e-07
1.754387581e-07
-1.365406817e-07
3.265066832e-07
-1.001320273e-16
-2.144250911e-16
-3.307600701e-16
-4.430814715e-16
-5.5436057e-16
-6.649407102e-16
-7.746082752e-16
-8.830931486e-16
-9.901441615e-16
-1.095534188e-15
-1.199057077e-15
-1.300524722e-15
-1.399764496e-15
-1.496616952e-15
-1.59093406e-15
-1.682578167e-15
-1.771420949e-15
-1.857343136e-15
-1.940234139e-15
-2.019991682e-15
-2.096521756e-15
-2.169738239e-15
-2.239562641e-15
-2.305923841e-15
-2.368757736e-15
-2.428006917e-15
-2.48362023e-15
-2.535552535e-15
-2.583764121e-15
-2.628220413e-15
-2.668891496e-15
-2.705751692e-15
-2.738779243e-15
-2.767955752e-15
-2.79326606e-15
-2.814697633e-15
-2.832240432e-15
-2.845886686e-15
-2.85563046e-15
-2.861467676e-15
-1.431357095e-15
3.372971407e-08
9.653117903e-08
1.652870577e-07
1.919329923e-07
2.893555446e-07
4.934850622e-07
2.232067841e-07
-7.57142311e-08
2.879025591e-07
-1.011405864e-16
-2.159328438e-16
-3.324709408e-16
-4.44788732e-16
-5.559414734e-16
-6.663290651e-16
-7.757782342e-16
-8.840440754e-16
-9.90889242e-16
-1.09609296e-15
-1.199450865e-15
-1.300774029e-15
-1.399887865e-15
-1.496630671e-15
-1.59085226e-15
-1.682412923e-15
-1.771182745e-15
-1.857040939e-15
-1.939875747e-15
-2.019583869e-15
-2.09607041e-15
-2.169248503e-15
-2.239039057e-15
-2.305370361e-15
-2.368177952e-15
-2.427403936e-15
-2.482996951e-15
-2.53491137e-15
-2.583107335e-15
-2.627549996e-15
-2.668209198e-15
-2.705059138e-15
-2.738077854e-15
-2.767246821e-15
-2.792550714e-15
-2.813976885e-15
-2.831515248e-15
-2.84515787e-15
-2.854898835e-15
-2.86073395e-15
-1.430963042e-15
3.601654678e-08
7.060686185e-08
1.779528357e-07
2.101260371e-07
2.463264822e-07
5.027469691e-07
3.4567069e-07
-4.062390603e-07
6.286257907e-08
-1.018015728e-16
-2.169765013e-16
-3.337158164e-16
-4.460753679e-16
-5.571746841e-16
-6.674461984e-16
-7.767439542e-16
-8.848444533e-16
-9.915244288e-16
-1.096571234e-15
-1.199784503e-15
-1.300976693e-15
-1.399973087e-15
-1.496611145e-15
-1.590739618e-15
-1.6822176e-15
-1.770914034e-15
-1.856707146e-15
-1.939484199e-15
-2.019141092e-15
-2.095582165e-15
-2.168719971e-15
-2.238474781e-15
-2.30477448e-15
-2.367554104e-15
-2.426755414e-15
-2.482326631e-15
-2.534221949e-15
-2.582401178e-15
-2.626829197e-15
-2.667475698e-15
-2.704314593e-15
-2.737323825e-15
-2.766484684e-15
-2.791781668e-15
-2.813202086e-15
-2.830735664e-15
-2.844374411e-15
-2.854112331e-15
-2.859945281e-15
-1.430540502e-15
5.967322298e-08
4.913827655e-08
1.281608481e-07
1.721349987e-07
1.575643271e-07
3.667823612e-07
4.066085343e-07
4.075419616e-07
-1.081588734e-07
-1.022487677e-16
-2.177052864e-16
-3.346229594e-16
-4.470407899e-16
-5.581228255e-16
-6.683241298e-16
-7.775166362e-16
-8.854925344e-16
-9.920405866e-16
-1.09695625e-15
-1.200043898e-15
-1.301118687e-15
-1.400006982e-15
-1.496546434e-15
-1.590585471e-15
-1.681982777e-15
-1.770606575e-15
-1.856334484e-15
-1.939053091e-15
-2.018657696e-15
-2.095052033e-15
-2.168148114e-15
-2.237865784e-15
-2.304132438e-15
-2.366882715e-15
-2.426058084e-15
-2.481606362e-15
-2.533481494e-15
-2.581642989e-15
-2.626055519e-15
-2.666688529e-15
-2.703515745e-15
-2.736514892e-15
-2.765667112e-15
-2.790956792e-15
-2.812371076e-15
-2.829899596e-15