/*--------------------------------*- C++ -*----------------------------------*\
  =========                 |
  \\      /  F ield         | OpenFOAM: The Open Source CFD Toolbox
   \\    /   O peration     | Website:  https://openfoam.org
    \\  /    A nd           | Version:  6
     \\/     M anipulation  |
\*---------------------------------------------------------------------------*/
FoamFile
{
    version     2.0;
    format      ascii;
    class       volScalarField;
    location    "0.16";
    object      p_rgh;
}
// * * * * * * * * * * * * * * * * * * * * * * * * * * * * * * * * * * * * * //

dimensions      [1 -1 -2 0 0 0 0];

internalField   nonuniform List<scalar> 
2500
(
0.6966105206
0.5841124709
0.4436484156
0.2741366127
0.2293625564
0.2639243481
0.2842746069
0.3258787225
27276.42112
27515.79438
27750.16589
27976.27666
28191.18377
28392.95198
28580.55258
28753.6706
28912.49762
29057.55376
29189.55316
29309.3108
29417.68194
29515.52458
29603.67698
29682.94469
29754.09313
29817.84369
29874.87175
29925.80608
29971.22908
30011.67769
30047.64467
30079.58038
30107.89473
30132.95936
30155.1099
30174.64837
30191.84545
30206.94282
30220.15538
30231.67329
30241.66397
30250.27389
30257.63024
30263.8424
30269.00322
30273.19021
30276.46649
30278.88155
30280.47191
30281.26148
0.4089631915
0.4408179228
0.3288580831
0.2121707878
0.1848464968
0.2218653002
0.2482832661
0.2630363102
27276.38543
27520.20001
27758.42405
27987.47552
28204.31847
28407.11645
28595.03317
28767.96059
28926.26826
29070.61082
29201.79564
29320.69831
29428.21168
29525.2162
29612.5632
29691.06557
29761.49274
29824.56801
29880.96737
29931.31937
29976.20553
30016.16142
30051.67811
30083.20397
30111.14674
30135.87577
30157.72436
30176.99217
30193.94761
30208.83015
30221.85257
30233.20309
30243.04732
30251.53009
30258.77709
30264.8964
30269.97974
30274.10364
30277.33042
30279.70898
30281.27546
30282.05379
0.1680409687
0.2919801966
0.2260439572
0.1564528262
0.1528816214
0.198821288
0.227576406
0.2243597054
27276.36668
27529.57889
27775.85108
28010.87752
28231.49397
28436.15951
28624.50182
28796.87024
28954.00475
29096.827
29226.32206
29343.47724
29449.25262
29544.56791
29630.29679
29707.2646
29776.24736
29837.97146
29893.11375
29942.30201
29986.11588
30025.08811
30059.70625
30090.41463
30117.61658
30141.67679
30162.92386
30181.65269
30198.12709
30212.58207
30225.22621
30236.24379
30245.79679
30254.02675
30261.05639
30266.99116
30271.92051
30275.91903
30279.04744
30281.35337
30282.87202
30283.62662
0.01105006647
0.1604885627
0.1149182686
0.09796121722
0.1415628007
0.2004623714
0.2340811719
0.2265426601
27276.38385
27545.23988
27804.5169
28048.68194
28274.61522
28481.52302
28669.94339
28841.01402
28996.05449
29136.3718
29263.19012
29377.63792
29480.7558
29573.50833
29656.79391
29731.45126
29798.26334
29857.95956
29911.21711
29958.66214
30000.87107
30038.37218
30071.64753
30101.1352
30127.23169
30150.29461
30170.64528
30188.57144
30204.32982
30218.14874
30230.23038
30240.75308
30249.87338
30257.72782
30264.43469
30270.09551
30274.7963
30278.60875
30281.59117
30283.78929
30285.23687
30285.95618
-0.05870092919
0.0960202894
0.04274258424
0.06007545211
0.147599446
0.2220400595
0.2617463216
0.2516274942
27276.43001
27569.77672
27848.28129
28104.70703
28336.75594
28545.37177
28732.73477
28901.18913
29052.8291
29189.4175
29312.43071
29423.13063
29522.62653
29611.91804
29691.9217
29763.48574
29827.39789
29884.38916
29935.13592
29980.2614
30020.33722
30055.88526
30087.37985
30115.25036
30139.88389
30161.62827
30180.79489
30197.66168
30212.47583
30225.45652
30236.79738
30246.66874
30255.2198
30262.58049
30268.86313
30274.16399
30278.56455
30282.13264
30284.92337
30286.97994
30288.3342
30289.00716
-0.07273094104
0.08430852816
0.03022823553
0.06465724428
0.1850907085
0.2853589498
0.3132655195
0.3001450567
27276.51139
27608.37252
27914.09839
28185.09331
28422.32419
28630.47328
28814.43696
28978.1814
29124.65796
29256.0409
29373.98694
29479.82965
29574.70394
29659.61798
29735.49156
29803.17471
29863.45603
29917.06609
29964.67896
30006.91338
30044.33432
30077.45503
30106.7396
30132.60591
30155.42877
30175.54327
30193.248
30208.80827
30222.45907
30234.408
30244.83776
30253.90864
30261.76061
30268.51523
30274.27742
30279.13687
30283.1694
30286.43803
30288.99391
30290.87706
30292.11701
30292.7332
-0.06974008705
0.05436140113
0.02509060426
0.09414059774
0.2574740747
0.3795044861
0.3865631247
0.3733143473
27276.6302
27672.17237
28014.59705
28299.22551
28536.97367
28739.76558
28916.36437
29072.44655
29211.58429
29336.10426
29447.64907
29547.49948
29636.74391
29716.36076
29787.25432
29850.26808
29906.18814
29955.74306
29999.60339
30038.38188
30072.6348
30102.8642
30129.52097
30153.00833
30173.68552
30191.87162
30207.84924
30221.86803
30234.14799
30244.88246
30254.24092
30262.37141
30269.40273
30275.44644
30280.59849
30284.94076
30288.54228
30291.46032
30293.74132
30295.42155
30296.52777
30297.07755
-0.06994550902
-0.05358949224
-0.07777334704
0.0370218662
0.2703597394
0.4402004479
0.4756065384
0.4393896161
27276.75187
27787.85832
28172.8117
28460.23295
28686.59551
28875.26709
29038.8198
29183.66347
29313.13307
29429.14601
29533.00817
29625.77756
29708.41373
29781.82916
29846.89932
29904.45776
29955.2881
30000.11746
30039.61263
30074.37904
30104.96196
30131.84925
30155.47511
30176.22435
30194.43686
30210.41203
30224.41295
30236.67034
30247.38616
30256.73678
30264.87595
30271.93726
30278.03645
30283.27332
30287.73342
30291.48949
30294.60274
30297.12379
30299.09364
30300.54424
30301.49913
30301.97378
-0.07069168201
-0.1887299573
-0.2740300117
-0.1685340048
0.1420722678
0.4291977368
0.531596045
0.4210212543
27280.06771
28027.67203
28428.51211
28682.36344
28873.96239
29035.91893
29180.00057
29310.2627
29428.14286
29534.34124
29629.46213
29714.19084
29789.30634
29855.64508
29914.05847
29965.37811
30010.39179
30049.82893
30084.35361
30114.56278
30140.98795
30164.09902
30184.30923
30201.98053
30217.42905
30230.93026
30242.72383
30253.01795
30261.99329
30269.8064
30276.59271
30282.46917
30287.53647
30291.88099
30295.57641
30298.68514
30301.25949
30303.34261
30304.96934
30306.1668
30306.9549
30307.34675
-0.08642349423
-0.2443805902
-0.3838646943
-0.3566420621
-0.04996617584
0.3400003067
0.4751357399
5.534235613
27939.55287
28611.24388
28831.75406
28967.00557
29091.07649
29214.48516
29335.01501
29449.24877
29554.83623
29650.61501
29736.30941
29812.21877
29878.97753
29937.38849
29988.31373
30032.60702
30071.07476
30104.45575
30133.41312
30158.53363
30180.33122
30199.25293
30215.68561
30229.96294
30242.37206
30253.15973
30262.53779
30270.68804
30277.76642
30283.90662
30289.22319
30293.81416
30297.76325
30301.14176
30304.01012
30306.41925
30308.41157
30310.02196
30311.27846
30312.20285
30312.8111
30313.11367
-0.09241182834
-0.199791898
-0.3051107385
-0.3131286305
-0.1091141649
0.2273830487
0.333210693
34.75813743
30716.12517
29645.29545
29321.72165
29263.15353
29308.91918
29395.93767
29496.32145
29596.87641
29691.3352
29776.97174
29852.94165
29919.39821
29976.99811
30026.61969
30069.20335
30105.66413
30136.84729
30163.50913
30186.31255
30205.83052
30222.55361
30236.89915
30249.22071
30259.81699
30268.94003
30276.80236
30283.5832
30289.4337
30294.48148
30298.83428
30302.58314
30305.80494
30308.56456
30310.91667
30312.90712
30314.57423
30315.94967
30317.0593
30317.92382
30318.55921
30318.97714
30319.18525
-0.08243368789
-0.117688403
-0.1405431692
-0.1060720919
0.02667558879
0.2085800819
0.1963120657
39.83699802
31098.68473
29934.452
29545.09784
29454.48125
29485.33423
29563.95247
29657.42316
29750.5837
29836.64832
29912.99158
29979.08631
30035.43494
30082.9986
30122.89097
30156.21835
30184.00162
30207.14403
30226.42394
30242.50053
30255.92546
30267.15677
30276.57267
30284.48444
30291.1477
30296.7722
30301.53006
30305.56255
30308.98577
30311.89525
30314.36969
30316.474
30318.2618
30319.77735
30321.05721
30322.1315
30323.02494
30323.75765
30324.34588
30324.80244
30325.13715
30325.35714
30325.46703
-0.06714190281
-0.05817232872
-0.02383982774
0.06184509242
0.1899673015
0.2610489185
0.09176036536
18.16813323
29325.63902
29451.86942
29468.24205
29523.81709
29613.77945
29717.02657
29818.79404
29911.36722
29991.67359
30059.25626
30114.97637
30160.25762
30196.67229
30225.72969
30248.78021
30266.98288
30281.30629
30292.54518
30301.3433
30308.21723
30313.57858
30317.75364
30321.00005
30323.52058
30325.47451
30326.98667
30328.15478
30329.05526
30329.7478
30330.27901
30330.68522
30330.99479
30331.22976
30331.40731
30331.54075
30331.64041
30331.71421
30331.76823
30331.80703
30331.83396
30331.85138
30331.86076
-0.05817297937
-0.03235947508
0.01745778869
0.1041006832
0.2287476569
0.2335428731
0.03419050405
11.90028281
28641.5242
29079.50701
29352.95091
29558.84793
29728.9086
29871.54571
29989.33687
30084.40555
30159.41724
30217.3821
30261.30614
30293.94894
30317.70592
30334.57829
30346.19303
30353.84659
30358.55626
30361.11037
30362.11349
30362.0248
30361.18993
30359.86657
30358.24487
30356.46349
30354.62205
30352.79085
30351.01823
30349.33633
30347.7654
30346.31708
30344.99692
30343.80624
30342.74352
30341.80547
30340.9878
30340.28577
30339.69462
30339.20989
30338.8276
30338.54442
30338.35778
30338.26595
-0.05867875727
-0.03163702499
0.01034614276
0.06471469492
0.1522588851
0.08836678441
-0.03279585266
9.127312024
28282.62292
28869.16935
29305.53038
29629.83262
29871.49115
30050.91382
30182.60036
30277.50024
30344.20899
30389.55141
30418.92056
30436.52977
30445.62793
30448.6882
30447.57057
30443.65764
30437.96512
30431.22986
30423.97873
30416.5818
30409.29303
30402.28112
30395.65271
30389.46982
30383.7628
30378.53994
30373.79452
30369.51006
30365.66407
30362.23074
30359.18295
30356.49359
30354.13652
30352.08722
30350.3232
30348.82427
30347.57267
30346.55319
30345.75315
30345.16245
30344.77352
30344.58136
-0.06701076383
-0.04633815659
-0.01938095139
0.0016810848
0.04208567948
-0.06695906191
-0.09965933204
7.534065952
28069.78404
28805.9235
29370.20999
29783.50649
30076.33972
30278.03656
30412.66321
30498.79601
30550.3755
30577.70133
30588.3013
30587.62728
30579.59275
30566.98042
30551.74743
30535.25197
30518.42019
30501.86856
30485.99303
30471.03387
30457.12251
30444.31541
30432.61831
30422.00363
30412.42281
30403.81504
30396.11338
30389.24894
30383.15373
30377.76259
30373.01434
30368.85249
30365.22564
30362.08763
30359.3975
30357.11946
30355.22266
30353.68112
30352.47346
30351.5828
30350.99663
30350.70664
-0.0807127623
-0.0676457971
-0.05454189164
-0.05175485416
-0.05076941897
-0.1200190994
-0.1369675743
6.497793892
27996.85549
28911.02951
29585.83123
30057.65
30372.35154
30572.25769
30691.244
30754.66439
30780.81079
30782.58889
30768.96531
30746.09268
30718.1414
30687.8983
30657.19107
30627.18646
30598.59866
30571.8345
30547.0942
30524.4413
30503.8509
30485.24289
30468.50473
30453.50687
30440.11311
30428.18747
30417.59853
30408.22214
30399.94297
30392.65527
30386.26309
30380.68021
30375.82981
30371.64407
30368.06369
30365.03739
30362.52145
30360.47923
30358.88084
30357.70278
30356.92765
30356.54398
-0.097480647
-0.08997461095
-0.08572987125
-0.08687075135
-0.10101557
-0.1141776175
-0.2315374927
5.549638737
28135.36367
29251.47964
30004.38775
30488.92874
30783.2015
30947.44201
31025.42697
31047.83479
31035.63536
31002.89364
30958.88987
30909.64538
30858.98853
30809.28564
30761.93653
30717.70796
30676.95696
30639.77981
30606.1111
30575.78932
30548.59997
30524.30364
30502.65402
30483.40923
30466.33861
30451.22659
30437.87459
30426.10166
30415.74436
30406.65611
30398.70629
30391.77925
30385.77317
30380.59907
30376.17976
30372.44898
30369.35052
30366.83756
30364.87198
30363.42392
30362.47133
30361.99968
-0.1156814188
-0.1117542028
-0.1131343988
-0.1157823081
-0.142007569
-0.1208534114
-0.2849367457
4.540399059
28707.98238
29950.5612
30691.39208
31110.5654
31324.1666
31408.94817
31415.23658
31375.64809
31311.02742
31234.47817
31154.06768
31074.61948
30998.88841
30928.32439
30863.56565
30804.7555
30751.74465
30704.2197
30661.784
30624.00783
30590.45898
30560.72067
30534.40155
30511.14057
30490.60875
30472.50902
30456.57498
30442.56905
30430.28027
30419.52215
30410.13045
30401.96111
30394.88841
30388.80316
30383.61125
30379.23222
30375.59813
30372.65254
30370.34966
30368.65367
30367.53816
30366.98576
-0.1339808169
-0.1325858448
-0.1373401926
-0.1421837824
-0.1703610777
-0.1469250924
-0.3037267782
3.704832069
30039.59506
31146.63669
31700.36642
31937.97154
31994.08418
31949.03691
31850.98293
31728.53344
31598.37451
31469.9416
31348.29514
31235.88472
31133.62717
31041.56234
30959.24982
30886.00686
30821.04928
30763.57308
30712.80007
30668.00175
30628.51022
30593.72139
30563.09392
30536.14584
30512.44997
30491.62903
30473.35065
30457.32274
30443.28908
30431.02541
30420.33593
30411.05012
30403.02001
30396.11781
30390.23378
30385.27449
30381.16125
30377.82885
30375.22452
30373.30702
30372.04598
30371.42145
-0.1512013212
-0.1519300042
-0.1585005408
-0.1676838575
-0.1922209307
-0.2041058959
-0.3221517458
3.468210751
32352.80885
32892.10446
33025.96784
32947.14264
32765.32344
32542.23098
32311.18546
32089.16564
31884.01876
31698.63308
31533.2958
31387.00322
31258.17749
31145.05121
31045.86708
30958.97524
30882.87484
30816.22557
30757.84381
30706.69137
30661.86137
30622.56347
30588.10976
30557.90187
30531.41937
30508.20968
30487.87918
30470.0856
30454.53139
30440.95809
30429.14143
30418.88717
30410.02753
30402.41815
30395.9355
30390.47467
30385.94751
30382.28113
30379.41661
30377.30796
30375.92137
30375.23462
-0.166259159
-0.1688642303
-0.1763191522
-0.1914278251
-0.2102320407
-0.2717927714
-0.3060729972
3.716515926
35408.20122
35041.29781
34564.6636
34059.54842
33577.97879
33143.46075
32762.40897
32432.95085
32149.91612
31907.28403
31699.25623
31520.65754
31367.03018
31234.59944
31120.19345
31021.15366
30935.2509
30860.61239
30795.66025
30739.06078
30689.68283
30646.56393
30608.88253
30575.93539
30547.119
30521.9143
30499.87408
30480.61247
30463.79629
30449.13771
30436.38819
30425.33332
30415.78858
30407.59562
30400.61932
30394.74512
30389.87699
30385.93558
30382.85686
30380.5909
30379.10099
30378.36306
-0.1781007994
-0.1820849622
-0.1892410301
-0.2087133144
-0.2154267051
-0.3123932858
-0.1942079868
5.060920143
38662.27512
37301.8583
36131.98138
35148.55151
34343.66872
33691.26658
33162.05632
32730.31806
32375.41103
32081.329
31835.78555
31629.33886
31454.68511
31306.12235
31179.15365
31070.19556
30976.36368
30895.31417
30825.1257
30764.2106
30711.24745
30665.12932
30624.92367
30589.84097
30559.2099
30532.45756
30509.09359
30488.69728
30470.90706
30455.41184
30441.94392
30430.27308
30420.20162
30411.5603
30404.20492
30398.01346
30392.88371
30388.73137
30385.4884
30383.10183
30381.53273
30380.75555
-0.1861070415
-0.1906404043
-0.1968157614
-0.2165843412
-0.2120121535
-0.3073920728
-0.06213753488
7.345795204
41366.37992
39376.37365
37512.86795
36059.09807
34956.89493
34115.86361
33464.20728
32950.832
32540.0636
32206.8226
31933.20897
31706.22095
31516.24489
31356.04863
31220.10191
31104.11085
31004.69438
30919.1558
30845.31911
30781.4102
30725.96909
30677.78453
30635.84439
30599.29766
30567.42497
30539.61551
30515.34865
30494.17934
30475.72625
30459.6622
30445.70622
30433.61716
30423.18829
30414.24288
30406.6305
30400.22402
30394.91702
30390.62178
30387.26758
30384.79933
30383.17661
30382.37286
-0.190067765
-0.1946275166
-0.1998445835
-0.2179290836
-0.2054800446
-0.2890223423
-0.007907721547
-1.058713154
41278.47495
41335.17056
38485.71989
36618.24603
35308.85825
34350.98311
33628.00104
33068.68716
32627.15412
32272.66574
31983.99142
31746.08088
31548.01823
31381.72123
31241.09208
31121.45041
31019.14703
30931.29606
30855.58587
30790.14355
30733.4361
30684.19755
30641.37418
30604.08299
30571.57971
30543.23389
30518.50934
30496.94848
30478.15985
30461.808
30447.60521
30435.30475
30424.69528
30415.59625
30407.85408
30401.33902
30395.94254
30391.57518
30388.16483
30385.65536
30384.00558
30383.18842
-0.1900675842
-0.194627382
-0.1998445164
-0.2179291054
-0.2054801338
-0.289022406
-0.007907443734
-1.058709451
41278.47851
41335.16681
38485.71893
36618.2456
35308.8579
34350.98273
33628.00063
33068.68672
32627.15367
32272.66529
31983.99099
31746.08047
31548.01785
31381.72089
31241.09179
31121.45016
31019.14682
30931.2959
30855.58575
30790.14347
30733.43607
30684.19756
30641.37422
30604.08307
30571.57982
30543.23404
30518.50952
30496.94869
30478.16008
30461.80826
30447.60549
30435.30505
30424.6956
30415.59658
30407.85443
30401.33939
30395.94292
30391.57556
30388.16522
30385.65576
30384.00598
30383.18883
-0.1861064886
-0.1906399869
-0.1968155535
-0.216584408
-0.212012537
-0.3073927601
-0.06213840267
7.345827667
41366.38309
39376.37347
37512.86732
36059.09727
34956.89397
34115.86249
33464.20604
32950.83068
32540.06224
32206.82125
31933.20767
31706.21972
31516.24376
31356.04761
31220.10101
31104.11009
31004.69376
30919.1553
30845.31876
30781.40997
30725.96899
30677.78455
30635.84453
30599.2979
30567.42532
30539.61595
30515.34919
30494.17996
30475.72695
30459.66297
30445.70706
30433.61806
30423.18925
30414.24389
30406.63156
30400.22511
30394.91815
30390.62294
30387.26875
30384.80052
30383.17781
30382.37407
-0.1780998434
-0.1820842229
-0.1892406511
-0.2087133967
-0.2154274585
-0.3123947786
-0.1942109873
5.060931966
38662.2767
37301.85865
36131.9808
35148.55036
34343.66715
33691.26469
33162.0542
32730.3158
32375.40872
32081.32671
31835.78334
31629.33678
31454.6832
31306.12063
31179.15215
31070.19429
30976.36263
30895.31335
30825.1251
30764.21022
30711.24728
30665.12935
30624.92389
30589.84138
30559.21048
30532.4583
30509.09449
30488.69832
30470.90823
30455.41313
30441.94533
30430.27459
30420.20322
30411.56199
30404.20668
30398.01528
30392.88559
30388.73329
30385.49036
30383.10381
30381.53473
30380.75756
-0.166257747
-0.1688631072
-0.1763185375
-0.1914278619
-0.210233048
-0.2717946813
-0.306076755
3.71651908
35408.20189
35041.29783
34564.66272
34059.54678
33577.97652
33143.458
32762.40588
32432.94757
32149.91278
31907.28073
31699.25307
31520.65458
31367.02747
31234.59701
31120.19134
31021.15187
30935.24943
30860.61125
30795.65942
30739.06025
30689.6826
30646.56399
30608.88286
30575.93597
30547.11982
30521.91536
30499.87535
30480.61394
30463.79795
30449.13954
30436.39017
30425.33545
30415.79083
30407.59799
30400.62179
30394.74768
30389.87963
30385.93829
30382.85962
30380.59369
30379.10381
30378.36588
-0.1511993769
-0.1519284119
-0.158499611
-0.1676838012
-0.1922220412
-0.2041079749
-0.3221555631
3.468206184
32352.80898
32892.10408
33025.96652
32947.14036
32765.32033
32542.22723
32311.18128
32089.16122
31884.01428
31698.62868
31533.29161
31386.99932
31258.17394
31145.04805
31045.86433
30958.97292
30882.87295
30816.2241
30757.84276
30706.69072
30661.8611
30622.56356
30588.1102
30557.90264
30531.42045
30508.21105
30487.88083
30470.08751
30454.53354
30440.96046
30429.14399
30418.88991
30410.03044
30402.42122
30395.9387
30390.47798
30385.95092
30382.28463
30379.42016
30377.31156
30375.92501
30375.23827
-0.1339782273
-0.132583664
-0.1373388535
-0.142183644
-0.170362251
-0.1469272271
-0.3037290942
3.704834174
30039.5966
31146.6364
31700.36468
31937.96849
31994.08004
31949.03195
31850.97745
31728.5277
31598.36875
31469.936
31348.28984
31235.87982
31133.62274
31041.55842
30959.24642
30886.00401
30821.04697
30763.5713
30712.79879
30668.00097
30628.50992
30593.72153
30563.09449
30536.14681
30512.45132
30491.63074
30473.3527
30457.32509
30443.29172
30431.02833
30420.33909
30411.0535
30403.0236
30396.12158
30390.23771
30385.27856
30381.16544
30377.83315
30375.22889
30373.31145
30372.05045
30371.42594
-0.1156780089
-0.1117512474
-0.1131325418
-0.1157823113
-0.1420090667
-0.1208561145
-0.2849373518
4.540405866
28707.98413
29950.56078
30691.38977
31110.56137
31324.16115
31408.94172
31415.22952
31375.6408
31311.02018
31234.47121
31154.06116
31074.61351
30998.88305
30928.31967
30863.56161
30804.75212
30751.74192
30704.21761
30661.78253
30624.00694
30590.45865
30560.72088
30534.40227
30511.14176
30490.61039
30472.51108
30456.57744
30442.57187
30430.28344
30419.52563
30410.13422
30401.96515
30394.89268
30388.80765
30383.61593
30379.23706
30375.60312
30372.65765
30370.35486
30368.65894
30367.54348
30366.99109
-0.09747612637
-0.08997049704
-0.0857272657
-0.08687156636
-0.1010189069
-0.1141849474
-0.2315412671
5.549641449
28135.36476
29251.4789
30004.38469
30488.92341
30783.19435
30947.43365
31025.41798
31047.82565
31035.62643
31002.88517
30958.88202
30909.63826
30858.9822
30809.28012
30761.93182
30717.70405
30676.95383
30639.77743
30606.10944
30575.78835
30548.59965
30524.30393
30502.6549
30483.41066
30466.34056
30451.22902
30437.87747
30426.10497
30415.74806
30406.66017
30398.71069
30391.78395
30385.77815
30380.60429
30376.18521
30372.45462
30369.35632
30366.84349
30364.87802
30363.43005
30362.47751
30362.00588
-0.0807066441
-0.06763957926
-0.05453745409
-0.051756334
-0.05077776
-0.1200393748
-0.1369789806
6.497788285
27996.85631
28911.02893
29585.82737
30057.64292
30372.34208
30572.24684
30691.2326
30754.65304
30780.79991
30782.57874
30768.95604
30746.08436
30718.13407
30687.89196
30657.18571
30627.18204
30598.59515
30571.83185
30547.09239
30524.44027
30503.85061
30485.2433
30468.5058
30453.50856
30440.11539
30428.1903
30417.60187
30408.22596
30399.94723
30392.65994
30386.26814
30380.6856
30375.83551
30371.65005
30368.06992
30365.04384
30362.52808
30360.48601
30358.88775
30357.70978
30356.93471
30356.55107
-0.06700235859
-0.04632797618
-0.01937178969
0.001683066874
0.04207442618
-0.06699244323
-0.09967093928
7.53410894
28069.78906
28805.92494
29370.20531
29783.49681
30076.32697
30278.02239
30412.64877
30498.78203
30550.3624
30577.68933
30588.29051
30587.61772
30579.58442
30566.97328
30551.74143
30535.24707
30518.41634
30501.86569
30485.9911
30471.03281
30457.12228
30444.31597
30432.6196
30422.00562
30412.42545
30403.81829
30396.1172
30389.25329
30383.15858
30377.76789
30373.02006
30368.85859
30365.23209
30362.09439
30359.40454
30357.12674
30355.23015
30353.68878
30352.48125
30351.5907
30351.00459
30350.71463
-0.05866728418
-0.03162010509
0.01036511473
0.06472933654
0.1522526249
0.08833809473
-0.03277395146
9.127542844
28282.64324
28869.17537
29305.52375
29629.8184
29871.47345
30050.89517
30182.58217
30277.48322
30344.19345
30389.53747
30418.90821
30436.51898
30445.61862
30448.6803
30447.564
30443.65231
30437.96096
30431.22681
30423.97671
30416.58076
30409.29291
30402.28186
30395.65426
30389.47214
30383.76584
30378.54364
30373.79885
30369.51497
30365.66952
30362.23669
30359.18937
30356.50042
30354.14374
30352.09478
30350.33107
30348.83241
30347.58104
30346.56174
30345.76185
30345.17126
30344.78241
30344.59028
-0.0581578344
-0.03233267259
0.01749411033
0.1041441407
0.2287689176
0.2335409114
0.03429076313
11.90088141
28641.57227
29079.51597
29352.93732
29558.82509
29728.88338
29871.52117
29989.31421
30084.38516
30159.39914
30217.3662
30261.29229
30293.93698
30317.69571
30334.5697
30346.18593
30353.84089
30358.55186
30361.10719
30362.11145
30362.02383
30361.18996
30359.86754
30358.24672
30356.46617
30354.62551
30352.79503
30351.0231
30349.34183
30347.77149
30346.32372
30345.00406
30343.81384
30342.75154
30341.81386
30340.99653
30340.29478
30339.70389
30339.21936
30338.83723
30338.55418
30338.36763
30338.27583
-0.06712344854
-0.05813408832
-0.02378043804
0.06192680685
0.1900436523
0.2610957607
0.09196393918
18.1695503
29325.74917
29451.86507
29468.20817
29523.77874
29613.74366
29716.99493
29818.76652
29911.34341
29991.65303
30059.23854
30114.96116
30160.24463
30196.6613
30225.72052
30248.7727
30266.9769
30281.30173
30292.54194
30301.34129
30308.21637
30313.5788
30317.75488
30321.00224
30323.52367
30325.47843
30326.99138
30328.16022
30329.06138
30329.75456
30330.28636
30330.69312
30331.00318
30331.2386
30331.41656
30331.55036
30331.65033
30331.72441
30331.77865
30331.81763
30331.8447
30331.8622
30331.87163
-0.08241409544
-0.1176399528
-0.140459856
-0.1059534658
0.02680854363
0.2086699334
0.1966013392
39.83584794
31098.57676
29934.34963
29545.01843
29454.42028
29485.28627
29563.91373
29657.39121
29750.55694
29836.62571
29912.97238
29979.07
30035.42114
30082.98701
30122.88136
30156.21054
30183.99546
30207.13939
30226.42071
30242.49862
30255.92478
30267.15724
30276.57423
30284.48702
30291.15123
30296.77663
30301.53533
30305.5686
30308.99256
30311.90272
30314.37779
30316.48268
30318.27101
30319.78705
30321.06735
30322.14202
30323.0358
30323.76881
30324.35728
30324.81404
30325.1489
30325.36898
30325.47891
-0.0923950618
-0.1997403278
-0.3050161002
-0.3129824191
-0.1089397305
0.2274626983
0.3334290795
34.75196111
30715.63726
29645.07753
29321.60112
29263.07536
29308.86283
29395.89427
29496.28663
29596.84775
29691.31125
29776.95157
29852.92462
29919.38388
29976.98614
30026.60982
30069.19538
30105.65791
30136.84267
30163.506
30186.31082
30205.83009
30222.55439
30236.90109
30249.22372
30259.82101
30268.945
30276.80823
30283.58989
30289.44118
30294.48968
30298.84316
30302.59264
30305.815
30308.57515
30310.92772
30312.91859
30314.58606
30315.96182
30317.07172
30317.93645
30318.57199
30318.99002
30319.19819
-0.0864118113
-0.2443391795
-0.3837837889
-0.3565009786
-0.0498118169
0.3399933461
0.4751194356
5.532327298
27939.29576
28611.08248
28831.64785
28966.93084
29091.02066
29214.44149
29334.97974
29449.21965
29554.81188
29650.5945
29736.29211
29812.20423
29878.96542
29937.37855
29988.30576
30032.60086
30071.07027
30104.45281
30133.41164
30158.53351
30180.33238
30199.25529
30215.6891
30229.9675
30242.37762
30253.16623
30262.54517
30270.69625
30277.77539
30283.91631
30289.23354
30293.82511
30297.77475
30301.15376
30304.02257
30306.43209
30308.42474
30310.03542
30311.29215
30312.21671
30312.82507
30313.1277
-0.07068560796
-0.1887098563
-0.2739856733
-0.1684655559
0.1421021581
0.4290640488
0.5313561945
0.4210463247
27280.07012
28027.60723
28428.44396
28682.30475
28873.91382
29035.87876
29179.96707
29310.23452
29428.11902
29534.32101
29629.445
29714.17642
29789.29434
29855.63527
29914.05064
29965.37213
30010.38752
30049.82627
30084.35246
30114.56304
30140.98954
30164.10186
30184.31326
30201.98568
30217.43525
30230.93745
30242.73193
30253.02692
30262.00307
30269.81693
30276.60394
30282.48104
30287.54893
30291.89397
30295.58987
30298.69902
30301.27373
30303.35716
30304.98413
30306.18177
30306.97
30307.3619
-0.06994561667
-0.05359287298
-0.07777592622
0.03697938597
0.2702357526
0.4399867243
0.4753164986
0.4392085094
27276.75154
27787.82634
28172.76863
28460.1896
28686.55588
28875.23216
29038.78943
29183.63722
29313.11044
29429.12658
29532.99159
29625.76355
29708.40205
29781.81964
29846.89179
29904.45208
29955.28417
30000.11517
30039.61188
30074.37975
30104.96404
30131.85264
30155.47973
30176.23012
30194.44373
30210.41993
30224.42182
30236.68012
30247.39679
30256.7482
30264.8881
30271.95009
30278.0499
30283.28732
30287.74792
30291.50445
30294.61808
30297.13946
30299.10957
30300.56037
30301.51539
30301.9901
-0.06974815944
0.05434577931
0.02506406669
0.09403912086
0.2572764476
0.379261887
0.386305501
0.3730676188
27276.62661
27672.15281
28014.56822
28299.19347
28536.942
28739.73601
28916.33757
29072.42269
29211.56328
29336.08596
29447.63332
29547.48609
29636.73274
29716.35168
29787.24719
29850.26281
29906.18462
29955.7412
29999.60311
30038.3831
30072.63743
30102.86817
30129.52622
30153.01478
30173.69311
30191.88028
30207.85891
30221.87866
30234.1595
30244.8948
30254.25403
30262.38522
30269.4172
30275.46149
30280.61408
30284.95682
30288.55875
30291.47715
30293.75843
30295.43888
30296.54524
30297.09509
-0.07274451455
0.0843006227
0.03021868786
0.06457759586
0.1849227364
0.2851500371
0.3130633856
0.2999263595
27276.50638
27608.35873
27914.07775
28185.06899
28422.29875
28630.4484
28814.41357
28978.15999
29124.63873
29256.02391
29373.97216
29479.81703
29574.6934
29659.60944
29735.48494
29803.16992
29863.453
29917.06474
29964.67921
30006.91515
30044.33755
30077.45965
30106.74554
30132.61309
30155.43713
30175.55274
30193.25853
30208.81978
30222.47151
30234.42129
30244.85186
30253.92348
30261.77613
30268.53137
30274.29412
30279.15408
30283.18705
30286.45606
30289.01225
30290.89564
30292.13575
30292.75202
-0.05871161617
0.09603897849
0.04277462642
0.06004985317
0.1474989876
0.2218960715
0.2615967906
0.2514723284
27276.42711
27569.76681
27848.2657
28104.68785
28336.73505
28545.35061
28732.7143
28901.16996
29052.81157
29189.40182
29312.41696
29423.11884
29522.61669
29611.91012
29691.91565
29763.48151
29827.39542
29884.38838
29935.13676
29980.2638
30020.34111
30055.89057
30087.38651
30115.2583
30139.89306
30161.63859
30180.80631
30197.67411
30212.48922
30225.47081
30236.8125
30246.68464
30255.23642
30262.59775
30268.88099
30274.18238
30278.58341
30282.15191
30284.94299
30286.99982
30288.35426
30289.02731
0.01105197814
0.1605391972
0.1149875724
0.0979786878
0.1415153224
0.2003764369
0.2339802513
0.226453269
27276.38402
27545.23253
27804.5043
28048.66598
28274.59744
28481.50462
28669.92524
28840.99673
28996.03848
29136.35732
29263.17735
29377.62695
29480.74667
29573.50106
29656.78847
29731.44762
29798.26147
29857.95939
29911.21859
29958.6652
30000.87566
30038.37823
30071.65497
30101.14396
30127.24171
30150.30582
30170.65762
30188.58483
30204.34421
30218.16406
30230.24656
30240.77007
30249.89111
30257.74623
30264.45373
30270.11511
30274.8164
30278.6293
30281.6121
30283.81053
30285.25833
30285.97773
0.168058698
0.2920508141
0.2261283305
0.1564928715
0.1528668659
0.1987747382
0.2275145692
0.2243104985
27276.36741
27529.57183
27775.83958
28010.86326
28231.47811
28436.14298
28624.48535
28796.8544
28953.98996
29096.81355
29226.31017
29343.46703
29449.24418
29544.56128
29630.29198
29707.26158
29776.24611
29837.97193
29893.1159
29942.30578
29986.12121
30025.09493
30059.7145
30090.42424
30117.62748
30141.68893
30162.93715
30181.66708
30198.1425
30212.59845
30225.24349
30236.26191
30245.81568
30254.04634
30261.07664
30267.012
30271.94188
30275.94089
30279.06973
30281.37602
30282.89494
30283.64967
0.4089903853
0.4408920184
0.3289399033
0.2122152643
0.1848489517
0.2218436866
0.2482498873
0.2629522122
27276.37765