/*--------------------------------*- C++ -*----------------------------------*\
  =========                 |
  \\      /  F ield         | OpenFOAM: The Open Source CFD Toolbox
   \\    /   O peration     | Website:  https://openfoam.org
    \\  /    A nd           | Version:  6
     \\/     M anipulation  |
\*---------------------------------------------------------------------------*/
FoamFile
{
    version     2.0;
    format      ascii;
    class       surfaceScalarField;
    location    "0.16";
    object      phi;
}
// * * * * * * * * * * * * * * * * * * * * * * * * * * * * * * * * * * * * * //

dimensions      [0 3 -1 0 0 0 0];

internalField   nonuniform List<scalar> 
4900
(
-6.588330892e-08
-1.129948613e-07
8.749923626e-09
-7.463323257e-08
3.898521116e-08
-3.023528746e-08
4.399957051e-08
-5.014359216e-09
3.672726543e-08
7.27230518e-09
2.09424792e-08
1.578478625e-08
1.5378002e-09
1.940467903e-08
-3.158416454e-17
1.537800295e-09
-2.387679197e-20
4.980781326e-24
-2.343610388e-20
-4.406880884e-22
-2.261009777e-20
-8.260154198e-22
-2.149001676e-20
-1.120101914e-21
-2.017638828e-20
-1.313660307e-21
-1.87598401e-20
-1.416590631e-21
-1.731173847e-20
-1.448154567e-21
-1.588274647e-20
-1.429055331e-21
-1.450572825e-20
-1.377091841e-21
-1.320009615e-20
-1.305715872e-21
-1.197594359e-20
-1.224246343e-21
-1.083730446e-20
-1.138742768e-21
-9.784456059e-21
-1.052961709e-21
-8.815430123e-21
-9.691487336e-22
-7.926954328e-21
-8.886078689e-22
-7.115020263e-21
-8.120751955e-22
-6.375222142e-21
-7.399480728e-22
-5.702961821e-21
-6.724188471e-22
-5.093578396e-21
-6.095502653e-22
-4.542435602e-21
-5.513176778e-22
-4.044984754e-21
-4.976334934e-22
-3.596812159e-21
-4.483627113e-22
-3.193675269e-21
-4.033341756e-22
-2.831529648e-21
-3.623497674e-22
-2.506547887e-21
-3.251924523e-22
-2.215131332e-21
-2.916334678e-22
-1.953915454e-21
-2.614386831e-22
-1.719769724e-21
-2.343740928e-22
-1.509792885e-21
-2.102104188e-22
-1.3213045e-21
-1.887268373e-22
-1.151833593e-21
-1.697138856e-22
-9.9910511e-22
-1.529756351e-22
-8.610248491e-22
-1.38331233e-22
-7.356633624e-22
-1.256159224e-22
-6.212392529e-22
-1.146816505e-22
-5.161021692e-22
-1.0539737e-22
-4.187156987e-22
-9.764914111e-23
-3.276402242e-22
-9.134016747e-23
-2.415155587e-22
-8.639101847e-23
-1.590424428e-22
-8.274076642e-23
-7.895936679e-23
-8.035166148e-23
-7.922852296e-23
-1.144553626e-07
-1.619227103e-07
-5.088462546e-08
-1.382039696e-07
-3.999777848e-09
-7.712013495e-08
1.32635873e-08
-2.227772426e-08
1.197779092e-08
8.558101654e-09
5.936014718e-09
2.182656246e-08
-7.505441562e-10
2.609123786e-08
-2.689499014e-17
7.872561125e-10
-2.431871489e-20
2.608368481e-24
-2.382124204e-20
-9.381795036e-22
-2.290413757e-20
-1.7431588e-21
-2.168362382e-20
-2.340674623e-21
-2.027941398e-20
-2.717948195e-21
-1.87915068e-20
-2.904594618e-21
-1.729272774e-20
-2.947048995e-21
-1.583084998e-20
-2.89106682e-21
-1.443439876e-20
-2.773694908e-21
-1.31186569e-20
-2.621627456e-21
-1.189045882e-20
-2.452631712e-21
-1.075153466e-20
-2.277871478e-21
-9.700649645e-21
-2.104068193e-21
-8.734892973e-21
-1.935143412e-21
-7.850423667e-21
-1.773331323e-21
-7.04289412e-21
-1.619874613e-21
-6.307693241e-21
-1.475434098e-21
-5.640093122e-21
-1.340318923e-21
-5.035345372e-21
-1.214612294e-21
-4.488750741e-21
-1.098240407e-21
-3.995713112e-21
-9.910125154e-22
-3.551782626e-21
-8.926473473e-22
-3.152689768e-21
-8.027933875e-22
-2.794371181e-21
-7.210463452e-22
-2.472987724e-21
-6.469649584e-22
-2.18493537e-21
-5.800853384e-22
-1.92684971e-21
-5.199337273e-22
-1.695604938e-21
-4.660375083e-22
-1.488308249e-21
-4.179343956e-22
-1.302290562e-21
-3.751798316e-22
-1.135094432e-21
-3.373527156e-22
-9.844598787e-22
-3.040596468e-22
-8.483087934e-22
-2.749378971e-22
-7.24728431e-22
-2.496573431e-22
-6.119543991e-22
-2.279215764e-22
-5.083534535e-22
-2.094683993e-22
-4.124063258e-22
-1.940698956e-22
-3.226907692e-22
-1.81532247e-22
-2.378651174e-22
-1.716954445e-22
-1.566533612e-22
-1.644329102e-22
-7.783618844e-23
-1.596502171e-22
-1.572772067e-22
-1.31355919e-07
-1.772594569e-07
-8.614707043e-08
-1.834128182e-07
-3.766303245e-08
-1.256041729e-07
-8.913344104e-09
-5.102741253e-08
-4.666412324e-09
4.311169991e-09
-4.550266885e-09
2.171041714e-08
-1.439661499e-09
2.298063255e-08
-2.646130927e-17
-6.524054016e-10
-2.525432514e-20
-4.602089453e-24
-2.462583599e-20
-1.566683869e-21
-2.350158855e-20
-2.867438647e-21
-2.206104329e-20
-3.781269608e-21
-2.046629046e-20
-4.312767341e-21
-1.883418844e-20
-4.536779308e-21
-1.723692992e-20
-4.544406358e-21
-1.571361113e-20
-4.414500459e-21
-1.428242004e-20
-4.205016667e-21
-1.294971702e-20
-3.954476734e-21
-1.171573231e-20
-3.686778019e-21
-1.057775112e-20
-3.41602933e-21
-9.531736163e-21
-3.150274582e-21
-8.573087208e-21
-2.893998243e-21
-7.696970352e-21
-2.649668156e-21
-6.898455223e-21
-2.418623453e-21
-6.172578539e-21
-2.201557843e-21
-5.514386169e-21
-1.998771299e-21
-4.918972565e-21
-1.810298426e-21
-4.38152147e-21
-1.635976115e-21
-3.897346207e-21
-1.475484021e-21
-3.461926662e-21
-1.328374298e-21
-3.070940533e-21
-1.194097603e-21
-2.720287486e-21
-1.072027668e-21
-2.406105744e-21
-9.61484661e-22
-2.124781402e-21
-8.617568126e-22
-1.872951185e-21
-7.721197276e-22
-1.647499607e-21
-6.918529902e-22
-1.445551583e-21
-6.202539089e-22
-1.264461483e-21
-5.566484638e-22
-1.101799553e-21
-5.003996734e-22
-9.553364808e-22
-4.5091369e-22
-8.230267594e-22
-4.076439786e-22
-7.02991355e-22
-3.70093938e-22
-5.935000839e-22
-3.378183074e-22
-4.929539819e-22
-3.10423668e-22
-3.99867878e-22
-2.875683086e-22
-3.128533344e-22
-2.689616769e-22
-2.306021112e-22
-2.543635654e-22
-1.51870317e-22
-2.43583045e-22
-7.546285372e-23
-2.364768855e-22
-2.329470693e-22
-1.327087471e-07
-1.684830654e-07
-1.111485846e-07
-2.049729807e-07
-6.879675654e-08
-1.67956001e-07
-2.82455643e-08
-9.157860477e-08
-1.050520454e-08
-1.34291898e-08
-7.576929699e-09
1.878214229e-08
-9.763488231e-10
1.638005173e-08
-6.979551485e-19
-1.628754259e-09
-2.681413457e-20
-1.127416025e-23
-2.592596668e-20
-2.454866727e-21
-2.441543911e-20
-4.377998038e-21
-2.259291044e-20
-5.603847129e-21
-2.069075408e-20
-6.2149889e-21
-1.884220738e-20
-6.385407308e-21
-1.710731263e-20
-6.279398364e-21
-1.550431955e-20
-6.017606588e-21
-1.40319996e-20
-5.677465252e-21
-1.268208903e-20
-5.304531308e-21
-1.144502408e-20
-4.924002104e-21
-1.031201902e-20
-4.549208372e-21
-9.275472361e-21
-4.187009796e-21
-8.328763977e-21
-3.840909422e-21
-7.465929245e-21
-3.512719589e-21
-6.681391211e-21
-3.203391732e-21
-5.969792243e-21
-2.913400221e-21
-5.325912538e-21
-2.642907181e-21
-4.744648695e-21
-2.391830797e-21
-4.221027168e-21
-2.159878087e-21
-3.750233762e-21
-1.946569343e-21
-3.327646853e-21
-1.751264134e-21
-2.948867212e-21
-1.573190706e-21
-2.60974093e-21
-1.411477461e-21
-2.306374281e-21
-1.265184375e-21
-2.035140721e-21
-1.133332485e-21
-1.792680939e-21
-1.014930156e-21
-1.575897159e-21
-9.089954269e-22
-1.381942956e-21
-8.145742528e-22
-1.208209725e-21
-7.307547833e-22
-1.052310838e-21
-6.566780584e-22
-9.120642873e-22
-5.915456036e-22
-7.854744932e-22
-5.346244534e-22
-6.707137579e-22
-4.852501211e-22
-5.661037363e-22
-4.428279908e-22
-4.7009717e-22
-4.068335547e-22
-3.812600454e-22
-3.76811855e-22
-2.982542684e-22
-3.523764188e-22
-2.198208747e-22
-3.332079067e-22
-1.447636676e-22
-3.19052619e-22
-7.193279166e-23
-3.097209797e-22
-3.050863727e-22
-1.275082838e-07
-1.42774244e-07
-1.29564448e-07
-2.029168165e-07
-1.004413321e-07
-1.970791168e-07
-5.570201898e-08
-1.363179179e-07
-1.848834247e-08
-5.064286634e-08
-6.550194006e-09
6.843993723e-09
-1.241491413e-09
1.107134911e-08
1.358640847e-17
-2.870245655e-09
-2.925550676e-20
-1.942639718e-23
-2.784823009e-20
-3.862158352e-21
-2.564169068e-20
-6.584569224e-21
-2.320491225e-20
-8.040674345e-21
-2.086198784e-20
-8.557978405e-21
-1.873679874e-20
-8.510677593e-21
-1.684590704e-20
-8.17038719e-21
-1.516440596e-20
-7.699220548e-21
-1.365919198e-20
-7.18280769e-21
-1.230162692e-20
-6.662240183e-21
-1.107026506e-20
-6.155522887e-21
-9.949838313e-21
-5.669808879e-21
-8.929381327e-21
-5.207655086e-21
-8.000579116e-21
-4.769914167e-21
-7.156603924e-21
-4.356911203e-21
-6.391400634e-21
-3.968824975e-21
-5.699298886e-21
-3.605745072e-21
-5.074834757e-21
-3.267627165e-21
-4.512693637e-21
-2.954240108e-21
-4.007715261e-21
-2.665136559e-21
-3.554924723e-21
-2.399651436e-21
-3.149569089e-21
-2.156922319e-21
-2.787149283e-21
-1.935923586e-21
-2.463442961e-21
-1.735506896e-21
-2.174517442e-21
-1.554442549e-21
-1.916733488e-21
-1.391458131e-21
-1.686741444e-21
-1.245272416e-21
-1.481471429e-21
-1.114623659e-21
-1.298119194e-21
-9.982921796e-22
-1.13412901e-21
-8.951175993e-22
-9.871747195e-22
-8.040113814e-22
-8.551398157e-22
-7.239653979e-22
-7.360971886e-22
-6.54057282e-22
-6.282890054e-22
-5.934532664e-22
-5.301070258e-22
-5.414091404e-22
-4.400735381e-22
-4.972698651e-22
-3.568230127e-22
-4.604682989e-22
-2.790844878e-22
-4.305233991e-22
-2.056646392e-22
-4.07038187e-22
-1.354313952e-22
-3.89697708e-22
-6.729787139e-23
-3.782671963e-22
-3.725907278e-22
-1.176014616e-07
-1.056165242e-07
-1.420615002e-07
-1.784567778e-07
-1.311126675e-07
-2.080279493e-07
-8.897006474e-08
-1.784605205e-07
-3.740825864e-08
-1.022046724e-07
-7.950132834e-09
-2.261413216e-08
-1.753202704e-09
4.874418857e-09
-2.541098842e-18
-4.623448338e-09
-3.309398918e-20
-2.942262519e-23
-3.05699233e-20
-6.386239195e-21
-2.709940427e-20
-1.005512003e-20
-2.372406909e-20
-1.14160583e-20
-2.081603724e-20
-1.146607535e-20
-1.83973167e-20
-1.092947932e-20
-1.637516871e-20
-1.019263229e-20
-1.464819946e-20
-9.426302674e-21
-1.313871547e-20
-8.692420131e-21
-1.179494621e-20
-8.006153245e-21
-1.058456447e-20
-7.366063539e-21
-9.487689261e-21
-6.766857846e-21
-8.491642384e-21
-6.203890262e-21
-7.587577303e-21
-5.674181777e-21
-6.768518331e-21
-5.176186595e-21
-6.028320648e-21
-4.709252608e-21
-5.361179924e-21
-4.273128898e-21
-4.761445538e-21
-3.867617406e-21
-4.223586819e-21
-3.49236702e-21
-3.742225867e-21
-3.14677761e-21
-3.312190509e-21
-2.829978351e-21
-2.928564637e-21
-2.540850746e-21
-2.586726462e-21
-2.278074841e-21
-2.282372265e-21
-2.040184211e-21
-2.011526627e-21
-1.825620848e-21
-1.770541471e-21
-1.632784985e-21
-1.556086594e-21
-1.460077514e-21
-1.365134152e-21
-1.305934326e-21
-1.194939174e-21
-1.168852855e-21
-1.043017753e-21
-1.047411658e-21
-9.071241256e-22
-9.402840469e-22
-7.852275319e-22
-8.462468871e-22
-6.754894525e-22
-7.641855668e-22
-5.762416047e-22
-6.930960793e-22
-4.859649151e-22
-6.320850016e-22
-4.032695669e-22
-5.803680359e-22
-3.26876128e-22
-5.372676541e-22
-2.555977011e-22
-5.022102764e-22
-1.883229864e-22
-4.747233254e-22
-1.24000104e-22
-4.544324244e-22
-6.16210149e-23
-4.410589654e-22
-4.344182408e-22
-9.808718693e-08
-6.302608565e-08
-1.423353793e-07
-1.342085855e-07
-1.543279536e-07
-1.96035375e-07
-1.242918822e-07
-2.084965918e-07
-6.632777876e-08
-1.601687757e-07
-1.603707567e-08
-7.290483523e-08
-1.446726342e-09
-9.715930576e-09
-5.983440739e-18
-6.070174746e-09
-3.944010173e-20
-3.637213632e-23
-3.424064838e-20
-1.158570751e-20
-2.846525634e-20
-1.583054383e-20
-2.377768165e-20
-1.610368177e-20
-2.028136808e-20
-1.496245401e-20
-1.76613253e-20
-1.354960327e-20
-1.560915169e-20
-1.224490301e-20
-1.391439527e-20
-1.112117198e-20
-1.24524432e-20
-1.015450064e-20
-1.115483128e-20
-9.303908974e-21
-9.98533639e-21
-8.535717345e-21
-8.924707351e-21
-7.827660643e-21
-7.961926563e-21
-7.166859358e-21
-7.089579133e-21
-6.546731746e-21
-6.301583284e-21
-5.964398877e-21
-5.592196087e-21
-5.418869773e-21
-4.955666779e-21
-4.909901328e-21
-4.386192226e-21
-4.437347837e-21
-3.877993111e-21
-4.000834353e-21
-3.425421055e-21
-3.599629793e-21
-3.023056334e-21
-3.23263466e-21
-2.665781422e-21
-2.898428246e-21
-2.348828058e-21
-2.595341319e-21
-2.067800916e-21
-2.321534508e-21
-1.818682778e-21
-2.075071686e-21
-1.597826187e-21
-1.853983314e-21
-1.401935898e-21
-1.656318066e-21
-1.228045577e-21
-1.480182912e-21
-1.073491345e-21
-1.323772827e-21
-9.358840285e-22
-1.185391655e-21
-8.13081394e-22
-1.063465763e-21
-7.031611924e-22
-9.565520276e-22
-6.043954985e-22
-8.633415095e-22
-5.152266058e-22
-7.826599798e-22
-4.34244562e-22
-7.13466259e-22
-3.601663173e-22
-6.548491441e-22
-2.918163875e-22
-6.060235396e-22
-2.281088782e-22
-5.663262738e-22
-1.680306924e-22
-5.352119705e-22
-1.106257214e-22
-5.122492633e-22
-5.497983031e-23
-4.971175691e-22
-4.89604586e-22
-6.34190518e-08
-2.375527488e-08
-1.201686036e-07
-7.745903382e-08
-1.570770514e-07
-1.591269273e-07
-1.504593231e-07
-2.151143201e-07
-9.871995005e-08
-2.119081487e-07
-3.13765183e-08
-1.402482669e-07
7.763975932e-10
-4.186884646e-08
1.831624045e-17
-5.293777236e-09
-5.094973793e-20
-5.211049678e-22
-3.85016551e-20
-2.403380529e-20
-2.875105451e-20
-2.558117619e-20
-2.264215782e-20
-2.221262723e-20
-1.887042853e-20
-1.873424837e-20
-1.635700051e-20
-1.606311246e-20
-1.448530849e-20
-1.411669213e-20
-1.294752339e-20
-1.265906995e-20
-1.160168567e-20
-1.15004668e-20
-1.038652982e-20
-1.051920862e-20
-9.277216196e-21
-9.64518988e-21
-8.263873729e-21
-8.841176867e-21
-7.341784929e-21
-8.089136466e-21
-6.507241561e-21
-7.381477658e-21
-5.75605314e-21
-6.715803739e-21
-5.083227038e-21
-6.091925853e-21
-4.483111504e-21
-5.510259998e-21
-3.949675153e-21
-4.971040083e-21
-3.476783102e-21
-4.473994643e-21
-3.058418856e-21
-4.018274189e-21
-2.688841601e-21
-3.602503529e-21
-2.362685319e-21
-3.224887146e-21
-2.075011582e-21
-2.883328201e-21
-1.821328258e-21
-2.57554102e-21
-1.597584658e-21
-2.29914802e-21
-1.400151479e-21
-2.051758268e-21
-1.225791723e-21
-1.831028122e-21
-1.071627015e-21
-1.634705924e-21
-9.351023073e-22
-1.460663315e-21
-8.139509223e-22
-1.306915761e-21
-7.06161115e-22
-1.171634693e-21
-6.099448039e-22
-1.053153319e-21
-5.237087633e-22
-9.499678399e-22
-4.460283292e-22
-8.607354625e-22
-3.756235217e-22
-7.842703204e-22
-3.11337397e-22
-7.195381716e-22
-2.521163947e-22
-6.656505358e-22
-1.969924181e-22
-6.218587755e-22
-1.450663822e-22
-5.875485016e-22
-9.549296564e-23
-5.622345823e-22
-4.746631866e-23
-5.455569624e-22
-5.372774348e-22
-1.678309629e-08
9.996027095e-10
-7.108394942e-08
-2.31581807e-08
-1.268726246e-07
-1.033382522e-07
-1.511332548e-07
-1.9085369e-07
-1.241554041e-07
-2.388859995e-07
-5.719709265e-08
-2.072065785e-07
-2.676243395e-09
-9.638969572e-08
2.221936827e-17
-7.970020611e-09
-7.447955101e-20
-6.635540641e-20
-4.013299406e-20
-5.838037719e-20
-2.540662181e-20
-4.030758021e-20
-1.916846592e-20
-2.845083188e-20
-1.61989329e-20
-2.170384645e-20
-1.440942469e-20
-1.785270183e-20
-1.302674825e-20
-1.549946564e-20
-1.17883169e-20
-1.389761416e-20
-1.062007942e-20
-1.26688327e-20
-9.512326199e-21
-1.162710563e-20
-8.47311374e-21
-1.068456124e-20
-7.511795806e-21
-9.802668546e-21
-6.634114413e-21
-8.967006158e-21
-5.841566884e-21
-8.174227726e-21
-5.132177463e-21
-7.4254096e-21
-4.501562447e-21
-6.722770849e-21
-3.943890301e-21
-6.068175286e-21
-3.452625517e-21
-5.462560772e-21
-3.02105581e-21
-4.905832601e-21
-2.642639248e-21
-4.396970918e-21
-2.311214755e-21
-3.934219655e-21
-2.021114962e-21
-3.515289577e-21
-1.767212526e-21
-3.137543807e-21
-1.544923311e-21
-2.798153449e-21
-1.350183194e-21
-2.494220899e-21
-1.17941008e-21
-2.222873186e-21
-1.029458888e-21
-1.981329645e-21
-8.97574486e-22
-1.766948663e-21
-7.813456119e-22
-1.577258003e-21
-6.78661521e-22
-1.409972607e-21
-5.876722227e-22
-1.263003148e-21
-5.067526115e-22
-1.134457945e-21
-4.344704568e-22
-1.02264032e-21
-3.695580159e-22
-9.26042987e-22
-3.108869305e-22
-8.433406942e-22
-2.574460179e-22
-7.733820211e-22
-2.083215624e-22
-7.151810185e-22
-1.626797184e-22
-6.67909177e-22
-1.197506626e-22
-6.30888084e-22
-7.881415465e-23
-6.035830234e-22
-3.918619824e-23
-5.855976953e-22
-5.766701762e-22
2.208219514e-08
5.769035087e-09
-7.69524437e-09
6.619258885e-09
-6.555465392e-08
-4.547884262e-08
-1.170223486e-07
-1.393859953e-07
-1.27202207e-07
-2.28706141e-07
-8.236911304e-08
-2.520396726e-07
-1.625344789e-08
-1.625053609e-07
-3.75066189e-18
-2.422346846e-08
-6.68715586e-20
-2.766385105e-19
-2.214617991e-20
-1.031057708e-19
-1.354549994e-20
-4.890829193e-20
-1.241069304e-20
-2.958568752e-20
-1.234087271e-20
-2.177373182e-20
-1.205247717e-20
-1.81411785e-20
-1.1423012e-20
-1.612902786e-20
-1.055860781e-20
-1.476213117e-20
-9.577913998e-21
-1.36496549e-20
-8.569589628e-21
-1.263557375e-20
-7.591149204e-21
-1.166316053e-20
-6.67611685e-21
-1.071787462e-20
-5.841341477e-21
-9.801969813e-21
-5.092759939e-21
-8.923011787e-21
-4.429548096e-21
-8.088837873e-21
-3.846971625e-21
-7.305577294e-21
-3.338275354e-21
-6.577114697e-21
-2.895892278e-21
-5.905199754e-21
-2.512185372e-21
-5.289807765e-21
-2.179876557e-21
-4.729559908e-21
-1.892271507e-21
-4.22211635e-21
-1.643355058e-21
-3.764508679e-21
-1.427807688e-21
-3.353404363e-21
-1.240976403e-21
-2.985307967e-21
-1.078821583e-21
-2.656708502e-21
-9.378533332e-22
-2.364183264e-21
-8.150655463e-22
-2.104467788e-21
-7.078724017e-22
-1.87450017e-21
-6.140497706e-22
-1.671446474e-21
-5.316826041e-22
-1.492712557e-21
-4.591185363e-22
-1.335946402e-21
-3.949274497e-22
-1.199034075e-21
-3.378664978e-22
-1.080091625e-21
-2.868499658e-22
-9.774546317e-22
-2.409233274e-22
-8.896666499e-22
-1.992408725e-22
-8.154674414e-22
-1.610463286e-22
-7.537816176e-22
-1.256559517e-22
-7.037081388e-22
-9.244362029e-23
-6.645109687e-22
-6.082751689e-23
-6.356110862e-22
-3.025802762e-23
-6.16579987e-22
-6.071347576e-22
4.034572516e-08
2.824997359e-09
3.811874757e-08
8.846236522e-09
2.442488579e-09
-9.802583647e-09
-5.921037336e-08
-7.773313333e-08
-1.044708718e-07
-1.834456425e-07
-9.208370292e-08
-2.644268415e-07
-3.176032367e-08
-2.228287403e-07
-1.26462019e-18
-5.598379213e-08
1.066657249e-19
-3.855488764e-20
3.247241409e-20
-2.89124749e-20
5.894732185e-21
-2.233064177e-20
-4.561869388e-21
-1.912913466e-20
-8.695462429e-21
-1.764020379e-20
-1.003543051e-20
-1.68012915e-20
-1.005415367e-20
-1.611040172e-20
-9.445348338e-21
-1.537104927e-20
-8.563547837e-21
-1.453158375e-20
-7.59710305e-21
-1.360216225e-20
-6.645874245e-21
-1.261454817e-20
-5.760249716e-21
-1.160367284e-20
-4.962422569e-21
-1.059998521e-20
-4.258616645e-21
-9.627020211e-21
-3.646306936e-21
-8.70136399e-21
-3.118517782e-21
-7.833596406e-21
-2.666360296e-21
-7.029515311e-21
-2.280493405e-21
-6.291322545e-21
-1.951925825e-21
-5.618643599e-21
-1.672418165e-21
-5.009347743e-21
-1.43464718e-21
-4.460178984e-21
-1.23223327e-21
-3.967225249e-21
-1.05969374e-21
-3.52625709e-21
-9.123598262e-22
-3.132965127e-21
-7.862800242e-22
-2.783121102e-21
-6.781225496e-22
-2.472682582e-21
-5.850837591e-22
-2.197856954e-21
-5.048057348e-22
-1.955136577e-21
-4.353040929e-22
-1.741313977e-21
-3.74905879e-22
-1.553483575e-21
-3.221967898e-22
-1.389034699e-21
-2.759766773e-22
-1.245639255e-21
-2.352222213e-22
-1.121236459e-21
-1.990556823e-22
-1.014016307e-21
-1.667187415e-22
-9.224029313e-22
-1.37550543e-22
-8.450386283e-22
-1.109691692e-22
-7.807690693e-22
-8.645588613e-23
-7.28630029e-22
-6.354159506e-23
-6.878358349e-22
-4.179500297e-23
-6.577696592e-22
-2.0812095e-23
-6.379757186e-22
-6.281534147e-22
4.474339169e-08
5.485483721e-10
5.105716533e-08
2.532462897e-09
4.163320957e-08
-3.786279311e-10
-5.118486208e-09
-3.098143757e-08
-6.99777185e-08
-1.185864102e-07
-8.983641393e-08
-2.44568146e-07
-4.557815789e-08
-2.670869963e-07
-5.378659215e-19
-1.0156195e-07
1.160014557e-19
1.760848867e-19
3.905456663e-20
4.803439926e-20
9.105434879e-21
7.618458271e-21
-3.067361321e-21
-6.956387138e-21
-7.853951443e-21
-1.285367863e-20
-9.343525612e-21
-1.531179836e-20
-9.314529707e-21
-1.613949458e-20
-8.605927742e-21
-1.607976396e-20
-7.634282369e-21
-1.550335742e-20
-6.60966223e-21
-1.462692605e-20
-5.635150431e-21
-1.358921876e-20
-4.756679372e-21
-1.248231754e-20
-3.989540287e-21
-1.136731251e-20
-3.333013208e-21
-1.028374976e-20
-2.778568279e-21
-9.256025298e-21
-2.314447662e-21
-8.297946958e-21
-1.92816564e-21
-7.416040442e-21
-1.607803796e-21
-6.611940274e-21
-1.342613683e-21
-5.884101955e-21
-1.123229843e-21
-5.229011753e-21
-9.416722962e-22
-4.642028177e-21
-7.912435626e-22
-4.117956644e-21
-6.663806353e-22
-3.651433217e-21
-5.62495588e-22
-3.237173427e-21
-4.758225401e-22
-2.870126957e-21
-4.032793814e-22
-2.545567596e-21
-3.423473441e-22
-2.259139378e-21
-2.909686058e-22
-2.006873712e-21
-2.474606362e-22
-1.785187823e-21
-2.104453611e-22
-1.590871671e-21
-1.787910403e-22
-1.421068244e-21
-1.515648304e-22
-1.273250548e-21
-1.279941892e-22
-1.145197494e-21
-1.074355175e-22
-1.034970132e-21
-8.934866615e-23
-9.408891408e-22
-7.327616231e-23
-8.615141381e-22
-5.882620005e-23
-7.956251268e-22
-4.565860753e-23
-7.422062459e-22
-3.34731401e-23
-7.004318945e-22
-2.199955919e-23
-6.696552378e-22
-1.098904437e-23
-6.493990737e-22
-6.393490271e-22
4.412528675e-08
1.83951558e-10
4.675323067e-08
-9.548101887e-11
4.639990293e-08
-2.530022171e-11
2.238648394e-08
-6.968018605e-09
-4.06257672e-08
-5.557415902e-08
-8.538499983e-08
-1.998089134e-07
-5.679266733e-08
-2.956793288e-07
4.196201221e-18
-1.583546173e-07
-1.248499129e-20
6.797337796e-20
-1.672756036e-21
3.722214909e-20
-5.55586365e-21
1.15015342e-20
-8.990948954e-21
-3.521350468e-21
-1.032112023e-20
-1.152357226e-20
-1.017492858e-20
-1.545807099e-20
-9.256645928e-21
-1.705787412e-20
-8.030600153e-21
-1.730592238e-20
-6.758542251e-21
-1.677554355e-20
-5.572413926e-21
-1.581319797e-20
-4.528553865e-21
-1.463323754e-20
-3.641871602e-21
-1.33691734e-20
-2.906099244e-21
-1.210327303e-20
-2.305357629e-21
-1.088469379e-20
-1.82052247e-21
-9.741076799e-21
-1.432549258e-21
-8.686150071e-21
-1.12405771e-21
-7.724775073e-21
-8.799478827e-22
-6.856305964e-21
-6.875002561e-22
-6.076817808e-21
-5.362202812e-22
-5.380571884e-21
-4.175739337e-22
-4.760966162e-21
-3.246937065e-22
-4.211139526e-21
-2.520955873e-22
-3.724344534e-21
-1.954254826e-22
-3.294166784e-21
-1.51241395e-22
-2.914643854e-21
-1.168313171e-22
-2.580319533e-21
-9.006376122e-23
-2.286257327e-21
-6.926666411e-23
-2.028029213e-21
-5.313019683e-23
-1.801690175e-21
-4.06292975e-23
-1.603745401e-21
-3.096223722e-23
-1.43111454e-21
-2.350208009e-23
-1.281095801e-21
-1.775842896e-23
-1.151331552e-21
-1.334732319e-23
-1.039776404e-21
-9.967562557e-24
-9.446682718e-22
-7.382070903e-24
-8.64502648e-22
-5.403190518e-24
-7.980101146e-22
-3.881021497e-24
-7.441370514e-22
-2.69409697e-24
-7.020294232e-22
-1.741822995e-24
-6.710195213e-22
-9.382173674e-25
-6.506155313e-22
-6.40493816e-22
4.346635785e-08
5.67758922e-10
4.219862922e-08
1.172247616e-09
4.02848742e-08
1.888454787e-09
2.877475897e-08
4.542096636e-09
-1.95892448e-08
-7.210155259e-09
-7.990867336e-08
-1.394894848e-07
-7.061057466e-08
-3.049774276e-07
1.403364187e-17
-2.28965192e-07
-4.35531072e-20
3.500518236e-20
-2.73681953e-20
2.103722228e-20
-2.05971895e-20
4.730496758e-21
-1.700797694e-20
-7.110611605e-21
-1.426429672e-20
-1.426731732e-20
-1.177964746e-20
-1.794280113e-20
-9.507558947e-21
-1.933005943e-20
-7.50195164e-21
-1.931164225e-20
-5.797266965e-21
-1.848035637e-20
-4.393120081e-21
-1.721748837e-20
-3.264900441e-21
-1.576161583e-20
-2.376216634e-21
-1.425803072e-20
-1.687657966e-21
-1.27920198e-20
-1.161809117e-21
-1.141074501e-20
-7.656199434e-22
-1.013748227e-20
-4.711709592e-22
-8.980828917e-21
-2.555689251e-22
-7.940620155e-21
-1.004309972e-22
-7.011699726e-21
8.77870528e-24
-6.186295714e-21
8.341976759e-23
-5.455493084e-21
1.32286455e-22
-4.810124471e-21
1.621333706e-22
-4.241289085e-21
1.781119848e-22
-3.740636337e-21
1.841247365e-22
-3.300502782e-21
1.831076152e-22
-2.913959539e-21
1.772530344e-22
-2.57480681e-21
1.681840824e-22
-2.277538769e-21
1.570898515e-22
-2.017293388e-21
1.448299828e-22
-1.789796195e-21
1.320150751e-22
-1.591303328e-21
1.190682925e-22
-1.418546998e-21
1.062723977e-22
-1.268685007e-21
9.380553157e-23
-1.139255099e-21
8.176833251e-23
-1.028134377e-21
7.020440947e-23
-9.33503726e-22
5.911573155e-23
-8.538169953e-22
4.847414366e-23
-7.877746412e-22
3.822994584e-23
-7.34301497e-22
2.831826445e-23
-6.925283529e-22
1.866378542e-23
-6.617770586e-22
9.184300891e-24
-6.415489056e-22
-6.315160875e-22
4.401801813e-08
1.112191087e-09
4.174508845e-08
3.445177316e-09
3.78587697e-08
5.774773536e-09
3.174821168e-08
1.065265467e-08
2.707551818e-09
2.183050462e-08
-6.568449322e-08
-7.109743971e-08
-8.036712278e-08
-2.90294798e-07
1.591066688e-17
-3.093323147e-07
-5.836363625e-20
1.99784104e-20
-4.364554287e-20
6.319114025e-21
-3.243714445e-20
-6.477933263e-21
-2.417069377e-20
-1.537711078e-20
-1.794574834e-20
-2.049232749e-20
-1.317132017e-20
-2.271731009e-20
-9.492106099e-21
-2.300937018e-20
-6.672571908e-21
-2.213128889e-20
-4.535591436e-21
-2.061746487e-20
-2.937973618e-21
-1.88152496e-20
-1.761741469e-21
-1.693800653e-20
-9.104412916e-22
-1.510950434e-20
-3.064993864e-22
-1.339614973e-20
1.114107608e-22
-1.182885746e-20
3.910343244e-22
-1.041732207e-20
5.690636549e-22
-9.15908806e-21
6.733904186e-22
-8.045189925e-21
7.250176327e-22
-7.063582739e-21
7.396272056e-22
-6.20117346e-21
7.288329107e-22
-5.444978901e-21
7.011636152e-22
-4.782746777e-21
6.628244532e-22
-4.20325255e-21
6.18280198e-22
-3.696405257e-21
5.7069899e-22
-3.25324481e-21
5.222878822e-22
-2.865881228e-21
4.745453933e-22
-2.527406172e-21
4.284508415e-22
-2.231794606e-21
3.84605769e-22
-1.973806719e-21
3.433391929e-22
-1.748895505e-21
3.047856195e-22
-1.553122589e-21
2.689425977e-22
-1.383083217e-21
2.357129231e-22
-1.235840434e-21
2.049353509e-22
-1.10886794e-21
1.764067158e-22
-1.000000915e-21
1.498976392e-22
-9.073940284e-22
1.251634626e-22
-8.294858457e-22
1.019516348e-22
-7.649689297e-22
8.000648145e-23
-7.127649891e-22
5.907205271e-23
-6.720045371e-22
3.889357776e-23
-6.420106019e-22
1.921793173e-23
-6.222861203e-22
-6.125047267e-22
4.620464407e-08
1.631547523e-09
4.451477788e-08
5.135043524e-09
4.093596204e-08
9.353589384e-09
3.790916363e-08
1.367945311e-08
2.876866674e-08
3.097100153e-08
-3.627334846e-08
-6.055424499e-09
-8.145242648e-08
-2.451157199e-07
-1.344071881e-17
-3.907847411e-07
-7.3280631e-20
5.532437542e-21
-5.643414696e-20
-1.052738486e-20
-4.133687979e-20
-2.157523196e-20
-2.929037627e-20
-2.74236627e-20
-2.01755195e-20
-2.960724887e-20
-1.346719666e-20
-2.942571357e-20
-8.616698522e-21
-2.785996487e-20
-5.16048561e-21
-2.558761411e-20
-2.734443435e-21
-2.304363495e-20
-1.06134956e-21
-2.048848677e-20
6.642867426e-23
-1.806594322e-20
8.027587905e-22
-1.58460078e-20
1.260744489e-21
-1.385432337e-20
1.522958504e-21
-1.20912737e-20
1.649313233e-21
-1.054389297e-20
1.683022079e-21
-9.193026665e-21
1.655063125e-21
-8.01747393e-21
1.587491874e-21
-6.996267246e-21
1.495883064e-21
-6.109832788e-21
1.391121189e-21
-5.340497109e-21
1.280708323e-21
-4.672625487e-21
1.169716567e-21
-4.092563399e-21
1.061480112e-21
-3.588481958e-21
9.580971265e-22
-3.150185044e-21
8.607930746e-22
-2.76890996e-21
7.701831678e-22
-2.437138105e-21
6.864614712e-22
-2.148423288e-21
6.095366803e-22
-1.897240322e-21
5.391291382e-22
-1.678853842e-21
4.748396804e-22
-1.489205958e-21
4.161980152e-22
-1.324820786e-21
3.62696244e-22
-1.18272376e-21
3.138116046e-22
-1.06037371e-21
2.690214118e-22
-9.556058924e-22
2.278123606e-22
-8.665843526e-22
1.896857713e-22
-7.9176228e-22
1.541599238e-22
-7.298491953e-22
1.20770319e-22
-6.797840264e-22
8.906847372e-23
-6.407133016e-22
5.861969157e-23
-6.119738349e-22
2.900013403e-23
-5.930794203e-22
-5.837111594e-22
4.976686805e-08
1.982774767e-09
4.888458498e-08
6.017326608e-09
4.719532745e-08
1.104284693e-08
4.560277624e-08
1.527200435e-08
5.04454904e-08
2.612828741e-08
7.970954603e-09
3.641911129e-08
-7.043881443e-08
-1.667059509e-07
-4.37949915e-17
-4.612235555e-07
-9.103811316e-20
-1.611424707e-20
-6.748974495e-20
-3.407576789e-20
-4.71929789e-20
-4.187202944e-20
-3.14804649e-20
-4.313622496e-20
-1.999889422e-20
-4.1088884e-20
-1.190484059e-20
-3.751984766e-20
-6.346525797e-21
-3.341837604e-20
-2.617810697e-21
-2.931644136e-20
-1.800152258e-22
-2.548155818e-20
1.360843405e-21
-2.202948856e-20
2.286235622e-21
-1.899149377e-20
2.794441208e-21
-1.635438662e-20
3.02385899e-21
-1.408392901e-20
3.070435047e-21
-1.213805191e-20
3.000285602e-21
-1.047395963e-20
2.85867971e-21
-9.051650472e-21
2.676367733e-21
-7.83540486e-21
2.474014748e-21
-6.794169973e-21
2.265296957e-21
-5.901383096e-21
2.059061117e-21
-5.134541316e-21
1.860829583e-21
-4.474685497e-21
1.673849012e-21
-3.905885406e-21
1.499820859e-21
-3.414766937e-21
1.339409819e-21
-2.990097202e-21
1.192597173e-21
-2.622430079e-21
1.058925621e-21
-2.303808376e-21
9.376681224e-22
-2.027516153e-21
8.279434564e-22
-1.787874036e-21
7.287944067e-22
-1.580070659e-21
6.392397297e-22
-1.400024098e-21
5.583077516e-22
-1.244268033e-21
4.850571203e-22
-1.109858215e-21
4.185886046e-22
-9.942955945e-22
3.580506877e-22
-8.954631362e-22
3.026408872e-22
-8.115739186e-22
2.516041628e-22
-7.411285706e-22
2.04229361e-22
-6.828804981e-22
1.598443606e-22
-6.358076599e-22
1.17810372e-22
-5.990899144e-22
7.751570105e-23
-5.720911708e-22
3.836918457e-23
-5.54345753e-22
-5.455485349e-22
5.40127773e-08
2.111267375e-09
5.368645211e-08
6.343651821e-09
5.339722404e-08
1.133207502e-08
5.209504759e-08
1.657418084e-08
5.655962042e-08
2.166371464e-08
4.439322952e-08
4.858550223e-08
-4.693033292e-08
-7.53823884e-08
-4.997494389e-17
-5.081538884e-07
-1.111817626e-19
-5.999875184e-20
-7.531496522e-20
-6.994258006e-20
-4.847330335e-20
-6.871372261e-20
-2.944209102e-20
-6.216748535e-20
-1.643481569e-20
-5.409622355e-20
-7.806036053e-21
-4.614870753e-20
-2.245933081e-21
-3.897857516e-20
1.216491103e-21
-3.277897749e-20
3.271896644e-21
-2.75370913e-20
4.39890338e-21
-2.315663831e-20
4.923513596e-21
-1.951626219e-20
5.065109026e-21
-1.649615518e-20
4.969950042e-21
-1.398895778e-20
4.734727361e-21
-1.190303129e-20
4.422773416e-21
-1.016222172e-20
4.075080646e-21
-8.704187335e-21
3.71773549e-21
-7.478302555e-21
3.36691419e-21
-6.443604337e-21
3.032233577e-21
-5.566970537e-21
2.718996624e-21
-4.821584371e-21
2.429696575e-21
-4.185676959e-21
2.165023672e-21
-3.641515051e-21
1.924537844e-21
-3.174594214e-21
1.707116744e-21
-2.772999275e-21
1.511252469e-21
-2.426898547e-21
1.335246252e-21
-2.128143961e-21