/*--------------------------------*- C++ -*----------------------------------*\
  =========                 |
  \\      /  F ield         | OpenFOAM: The Open Source CFD Toolbox
   \\    /   O peration     | Website:  https://openfoam.org
    \\  /    A nd           | Version:  6
     \\/     M anipulation  |
\*---------------------------------------------------------------------------*/
FoamFile
{
    version     2.0;
    format      ascii;
    class       volScalarField;
    location    "0.16";
    object      pVap;
}
// * * * * * * * * * * * * * * * * * * * * * * * * * * * * * * * * * * * * * //

dimensions      [1 -1 -2 0 0 0 0];

internalField   nonuniform List<scalar> 
2500
(
55294.62097
55294.34918
55293.91696
55293.53191
55293.23159
55292.99195
55292.78749
55292.63401
1.076912983
1.076026777
1.075430514
1.075025836
1.074752903
1.074570961
1.074451429
1.074374222
1.074325312
1.074294999
1.074276664
1.074265863
1.074259678
1.074256241
1.074254389
1.074253422
1.074252933
1.074252694
1.074252581
1.074252529
1.074252506
1.074252496
1.074252492
1.07425249
1.074252489
1.074252489
1.074252489
1.074252489
1.074252489
1.074252489
1.074252489
1.074252489
1.074252489
1.074252489
1.074252489
1.074252489
1.074252489
1.074252489
1.074252489
1.074252489
1.074252489
1.074252489
55296.40838
55296.13909
55295.61642
55294.91437
55294.22933
55293.63322
55293.10865
55292.64677
1.082334263
1.079746223
1.077949693
1.076710142
1.075862592
1.075289752
1.074908038
1.074657981
1.074497426
1.074396687
1.074335085
1.074298458
1.074277322
1.0742655
1.074259097
1.074255742
1.074254041
1.074253206
1.07425281
1.074252629
1.074252548
1.074252513
1.074252498
1.074252492
1.07425249
1.074252489
1.074252489
1.074252489
1.074252489
1.074252489
1.074252489
1.074252489
1.074252489
1.074252489
1.074252489
1.074252489
1.074252489
1.074252489
1.074252489
1.074252489
1.074252489
1.074252489
55297.2205
55296.99828
55296.54019
55295.84408
55294.98136
55294.15667
55293.39288
55292.65505
1.088433906
1.084119413
1.081043715
1.07887084
1.077347401
1.076290091
1.075566432
1.075080026
1.074760274
1.074555439
1.074427949
1.074351026
1.074306104
1.07428074
1.074266901
1.074259607
1.074255893
1.074254065
1.074253196
1.074252796
1.074252619
1.074252542
1.07425251
1.074252497
1.074252492
1.07425249
1.074252489
1.074252489
1.074252489
1.074252489
1.074252489
1.074252489
1.074252489
1.074252489
1.074252489
1.074252489
1.074252489
1.074252489
1.074252489
1.074252489
1.074252489
1.074252489
55297.66563
55297.47458
55297.08286
55296.46631
55295.60352
55294.63599
55293.67482
55292.67155
1.096139196
1.089940565
1.085384728
1.082056661
1.079636089
1.077892005
1.076654844
1.075796029
1.075215522
1.074834913
1.074593511
1.074445658
1.074358298
1.074308526
1.074281185
1.074266702
1.074259299
1.074255647
1.074253907
1.074253106
1.074252749
1.074252595
1.074252531
1.074252505
1.074252495
1.074252491
1.07425249
1.074252489
1.074252489
1.074252489
1.074252489
1.074252489
1.074252489
1.074252489
1.074252489
1.074252489
1.074252489
1.074252489
1.074252489
1.074252489
1.074252489
1.074252489
55297.96207
55297.7914
55297.44846
55296.90821
55296.11905
55295.08268
55293.95233
55292.7
1.106964921
1.098591322
1.092160385
1.087238546
1.083484888
1.080657253
1.078571785
1.077076344
1.076038822
1.075344543
1.074897234
1.074619996
1.074454732
1.074359961
1.074307656
1.074279855
1.074265615
1.074258579
1.074255224
1.074253679
1.074252991
1.074252694
1.07425257
1.07425252
1.074252501
1.074252493
1.07425249
1.074252489
1.074252489
1.074252489
1.074252489
1.074252489
1.074252489
1.074252489
1.074252489
1.074252489
1.074252489
1.074252489
1.074252489
1.074252489
1.074252489
1.074252489
55298.19646
55298.04406
55297.74369
55297.26955
55296.55781
55295.52859
55294.23848
55292.74534
1.123647572
1.112566076
1.103512999
1.096160445
1.090243603
1.085581398
1.082018398
1.079393334
1.077535082
1.076273172
1.075451477
1.074938335
1.074630826
1.074453847
1.074355941
1.074303827
1.074277113
1.074263912
1.074257617
1.074254719
1.074253428
1.074252873
1.074252641
1.074252547
1.074252511
1.074252497
1.074252492
1.07425249
1.074252489
1.074252489
1.074252489
1.074252489
1.074252489
1.074252489
1.074252489
1.074252489
1.074252489
1.074252489
1.074252489
1.074252489
1.074252489
1.074252489
55298.41001
55298.27941
55298.0266
55297.62061
55296.98807
55296.00698
55294.5773
55292.80902
1.151234892
1.136402021
1.12330308
1.111933924
1.10229489
1.094402883
1.088206446
1.083555704
1.080221953
1.077939046
1.076444374
1.075507724
1.074945259
1.0746212
1.074441859
1.074346411
1.074297504
1.074273353
1.074261847
1.074256554
1.0742542
1.074253187
1.074252765
1.074252595
1.074252529
1.074252503
1.074252494
1.074252491
1.074252489
1.074252489
1.074252489
1.074252489
1.074252489
1.074252489
1.074252489
1.074252489
1.074252489
1.074252489
1.074252489
1.074252489
1.074252489
1.074252489
55298.62652
55298.52195
55298.32527
55297.99668
55297.45219
55296.54278
55295.03155
55292.89444
1.199045019
1.178360392
1.158466249
1.140064272
1.123786122
1.110099559
1.099181085
1.090910586
1.08495209
1.080861417
1.078180444
1.076500269
1.075491835
1.074911353
1.074590463
1.074419898
1.074332621
1.074289581
1.074269105
1.074259697
1.074255519
1.074253724
1.074252978
1.074252677
1.074252559
1.074252514
1.074252498
1.074252492
1.07425249
1.074252489
1.074252489
1.074252489
1.074252489
1.074252489
1.074252489
1.074252489
1.074252489
1.074252489
1.074252489
1.074252489
1.074252489
1.074252489
55298.86214
55298.78312
55298.64526
55298.40065
55297.94933
55297.12045
55295.59468
55299.67134
1.284301725
1.253661866
1.221563084
1.190296799
1.161880384
1.137693137
1.118317305
1.103639972
1.093085288
1.085857958
1.081134343
1.078182022
1.076414575
1.07539962
1.074839816
1.074542888
1.074391254
1.074316618
1.074281172
1.074264915
1.074257706
1.074254613
1.074253328
1.074252811
1.074252609
1.074252532
1.074252504
1.074252494
1.074252491
1.074252489
1.074252489
1.074252489
1.074252489
1.074252489
1.074252489
1.074252489
1.074252489
1.074252489
1.074252489
1.074252489
1.074252489
1.074252489
55299.12341
55299.07132
55298.97979
55298.81954
55298.46973
55297.736
55296.23304
56613.31399
1.441168921
1.391591391
1.3360295
1.280181406
1.22900828
1.185593923
1.151090236
1.125189108
1.106721772
1.094169755
1.086016798
1.080947171
1.077925098
1.076195932
1.075245169
1.074742254
1.074486057
1.074360233
1.074300599
1.074273298
1.074261213
1.074256036
1.074253889
1.074253025
1.074252689
1.074252561
1.074252514
1.074252498
1.074252492
1.07425249
1.074252489
1.074252489
1.074252489
1.074252489
1.074252489
1.074252489
1.074252489
1.074252489
1.074252489
1.074252489
1.074252489
1.074252489
55299.39365
55299.3644
55299.31928
55299.23397
55298.99712
55298.3973
55297.01539
62138.13755
1.743910698
1.652647967
1.548040829
1.442560719
1.347224264
1.267976791
1.206310679
1.160888616
1.12900957
1.107611776
1.093847969
1.085353672
1.080319806
1.077453017
1.075882795
1.075054898
1.074634327
1.074428284
1.074330845
1.074286324
1.074266653
1.07425824
1.074254756
1.074253357
1.074252812
1.074252606
1.07425253
1.074252503
1.074252494
1.07425249
1.074252489
1.074252489
1.074252489
1.074252489
1.074252489
1.074252489
1.074252489
1.074252489
1.074252489
1.074252489
1.074252489
1.074252489
55299.68288
55299.66628
55299.65279
55299.62992
55299.50767
55299.08291
55297.88683
62898.19881
2.36499651
2.173527854
1.955942487
1.742733206
1.557324684
1.409276296
1.298214957
1.218883843
1.164545012
1.128742201
1.106028466
1.092153027
1.083992406
1.079371678
1.076852197
1.07552867
1.074858382
1.074530866
1.074376339
1.074305879
1.074274804
1.074261538
1.074256051
1.074253851
1.074252995
1.074252672
1.074252553
1.074252511
1.074252496
1.074252491
1.07425249
1.074252489
1.074252489
1.074252489
1.074252489
1.074252489
1.074252489
1.074252489
1.074252489
1.074252489
1.074252489
1.074252489
55299.98964
55299.98613
55299.99231
55300.00709
55299.99354
55299.77819
55298.82966
59371.38291
3.764832597
3.299528185
2.790216902
2.321030198
1.939313432
1.653241879
1.450202069
1.311582633
1.219898417
1.161039137
1.124392483
1.10230316
1.08943526
1.082199658
1.078274942
1.076221598
1.075185128
1.074680089
1.074442373
1.074334208
1.074286593
1.074266299
1.074257919
1.074254563
1.074253259
1.074252767
1.074252587
1.074252522
1.0742525
1.074252492
1.07425249
1.074252489
1.074252489
1.074252489
1.074252489
1.074252489
1.074252489
1.074252489
1.074252489
1.074252489
1.074252489
1.074252489
55300.30962
55300.31858
55300.34601
55300.39961
55300.46947
55300.48004
55299.88991
58005.9398
7.367261377
6.015094729
4.648991041
3.505527379
2.660810073
2.08198647
1.701775153
1.45798662
1.304311934
1.209066102
1.15122122
1.116949934
1.097221446
1.086219908
1.080288036
1.077198448
1.075644376
1.074889296
1.074534747
1.07437376
1.074303024
1.074272925
1.074260514
1.07425555
1.074253624
1.074252898
1.074252633
1.074252538
1.074252505
1.074252494
1.07425249
1.074252489
1.074252489
1.074252489
1.074252489
1.074252489
1.074252489
1.074252489
1.074252489
1.074252489
1.074252489
1.074252489
55300.63927
55300.65875
55300.71094
55300.81134
55300.97508
55301.19348
55301.03539
57280.2621
18.12133138
13.43980146
9.231663251
6.1236631
4.095096913
2.856795995
2.121542908
1.687449115
1.430608664
1.278590616
1.189187153
1.137360701
1.107959206
1.091724277
1.083030037
1.078523818
1.076265555
1.075171548
1.074659104
1.074426906
1.074325064
1.074281799
1.074263985
1.07425687
1.074254112
1.074253074
1.074252694
1.074252559
1.074252512
1.074252496
1.074252491
1.07425249
1.074252489
1.074252489
1.074252489
1.074252489
1.074252489
1.074252489
1.074252489
1.074252489
1.074252489
1.074252489
55300.97514
55301.00384
55301.08086
55301.23037
55301.48094
55301.88955
55302.21334
56820.01345
54.54669231
36.10150213
21.64692593
12.36901721
7.108680405
4.30447834
2.830904119
2.045444884
1.616259667
1.376577561
1.241188749
1.16479299
1.122212238
1.098970205
1.08661899
1.080251398
1.077072684
1.07553736
1.074819934
1.074495512
1.07435347
1.074293221
1.074268446
1.074258564
1.074254738
1.074253299
1.074252773
1.074252586
1.074252521
1.074252499
1.074252492
1.07425249
1.074252489
1.074252489
1.074252489
1.074252489
1.074252489
1.074252489
1.074252489
1.074252489
1.074252489
1.074252489
55301.31325
55301.35139
55301.45439
55301.65869
55302.00541
55302.59145
55303.35456
56545.55935
184.3279944
108.9319739
57.16243705
28.07396831
13.72550894
7.089702206
4.043948725
2.601375103
1.884264996
1.510891786
1.310020222
1.200284295
1.140384002
1.108121191
1.091123097
1.082410025
1.078077948
1.075991824
1.075019325
1.074580418
1.074388571
1.074307314
1.074273945
1.074260649
1.074255507
1.074253575
1.074252869
1.074252619
1.074252532
1.074252503
1.074252493
1.07425249
1.074252489
1.074252489
1.074252489
1.074252489
1.074252489
1.074252489
1.074252489
1.074252489
1.074252489
1.074252489
55301.6485
55301.69724
55301.82916
55302.09353
55302.5484
55303.27857
55304.39226
56389.41241
618.3727885
333.7939992
157.2662391
67.7565527
28.45868063
12.51425212
6.124003179
3.456239307
2.262873692
1.689410031
1.397808677
1.244357699
1.162572318
1.119176713
1.096527566
1.084988313
1.079274734
1.076531534
1.075255647
1.074680881
1.074430044
1.074323945
1.074280426
1.074263105
1.074256412
1.074253899
1.074252983
1.074252657
1.074252545
1.074252507
1.074252495
1.074252491
1.074252489
1.074252489
1.074252489
1.074252489
1.074252489
1.074252489
1.074252489
1.074252489
1.074252489
1.074252489
55301.97429
55302.03492
55302.19914
55302.52863
55303.10092
55303.99044
55305.3388
56315.57626
1838.096111
940.3724679
414.0888461
162.4195359
60.26031316
22.89418286
9.634175376
4.742759049
2.782174125
1.918117673
1.505164396
1.296658303
1.188412457
1.131903202
1.102703863
1.087920942
1.080631582
1.077141962
1.075522431
1.074794119
1.074476728
1.074342644
1.074287705
1.074265861
1.074257427
1.074254263
1.07425311
1.0742527
1.074252559
1.074252512
1.074252496
1.074252491
1.074252489
1.074252489
1.074252489
1.074252489
1.074252489
1.074252489
1.074252489
1.074252489
1.074252489
1.074252489
55302.28237
55302.35615
55302.55593
55302.95705
55303.65786
55304.74589
55306.32456
56296.42567
4520.713063
2275.575562
975.4817138
363.1014523
123.5123411
41.66721342
15.30613166
6.602388111
3.464733876
2.197825446
1.630070788
1.355573329
1.216941972
1.145783434
1.109389819
1.091080574
1.082088841
1.077796079
1.075807812
1.074915078
1.074526535
1.074362573
1.074295457
1.074268792
1.074258506
1.07425465
1.074253244
1.074252746
1.074252574
1.074252516
1.074252498
1.074252491
1.07425249
1.074252489
1.074252489
1.074252489
1.074252489
1.074252489
1.074252489
1.074252489
1.074252489
1.074252489
55302.56311
55302.65076
55302.88765
55303.36296
55304.18996
55305.46594
55307.18559
56399.02901
9043.76512
4601.69522
1979.862087
724.0854486
234.1481879
72.44971594
23.79233913
9.119424627
4.308317661
2.519677411
1.766728704
1.41794424
1.24653517
1.160005102
1.11618966
1.09427934
1.083559754
1.07845495
1.076094816
1.075036573
1.07457651
1.074382551
1.074303221
1.074271727
1.074259585
1.074255036
1.074253379
1.074252792
1.074252589
1.074252521
1.074252499
1.074252492
1.07425249
1.074252489
1.074252489
1.074252489
1.074252489
1.074252489
1.074252489
1.074252489
1.074252489
1.074252489
55302.80605
55302.90753
55303.18108
55303.72899
55304.67398
55306.11183
55307.94253
56584.718
14967.61771
7801.989581
3425.381272
1258.656083
397.8978169
116.3821161
35.11295751
12.20916442
5.263541001
2.860833782
1.904845201
1.479033029
1.274961269
1.173507403
1.12260088
1.097282603
1.084937062
1.079070761
1.0763627
1.075149852
1.074623065
1.074401147
1.074310443
1.074274455
1.074260587
1.074255395
1.074253504
1.074252834
1.074252603
1.074252526
1.0742525
1.074252492
1.07425249
1.074252489
1.074252489
1.074252489
1.074252489
1.074252489
1.074252489
1.074252489
1.074252489
1.074252489
55303.0007
55303.11494
55303.42236
55304.03757
55305.09065
55306.66559
55308.58336
56952.30723
21105.43615
11293.94461
5082.166621
1894.858071
595.7625461
168.6599454
47.99087963
15.5078293
6.218269348
3.183203285
2.030064808
1.532911995
1.299606534
1.185094616
1.12806966
1.099835142
1.086105016
1.079592173
1.076589269
1.075245578
1.074662377
1.074416841
1.074316534
1.074276755
1.074261432
1.074255697
1.074253609
1.07425287
1.074252615
1.07425253
1.074252502
1.074252493
1.07425249
1.074252489
1.074252489
1.074252489
1.074252489
1.074252489
1.074252489
1.074252489
1.074252489
1.074252489
55303.13729
55303.26172
55303.59635
55304.26581
55305.40511
55307.07361
55309.07459
57388.6163
26073.86973
14250.43338
6546.179331
2477.16785
780.4629416
217.3138607
59.65792553
18.36864235
7.007210588
3.438487425
2.12610073
1.573353525
1.317858467
1.193607497
1.132068638
1.101696463
1.086955225
1.0799713
1.076753876
1.075315081
1.074690905
1.074428225
1.074320951
1.074278422
1.074262045
1.074255916
1.074253685
1.074252896
1.074252624
1.074252532
1.074252503
1.074252493
1.07425249
1.074252489
1.074252489
1.074252489
1.074252489
1.074252489
1.074252489
1.074252489
1.074252489
1.074252489
55303.20792
55303.33818
55303.68853
55304.38975
55305.58141
55307.3054
55309.36337
55311.31417
28967.41247
15929.13564
7404.262572
2827.08392
893.1873489
247.0571714
66.69338379
20.05081274
7.457713435
3.580445957
2.17843465
1.595091684
1.327585507
1.198121172
1.134182648
1.102678696
1.087403403
1.080171011
1.076840541
1.07535166
1.074705915
1.074434212
1.074323274
1.074279298
1.074262367
1.074256031
1.074253725
1.074252909
1.074252628
1.074252534
1.074252503
1.074252493
1.07425249
1.074252489
1.074252489
1.074252489
1.074252489
1.074252489
1.074252489
1.074252489
1.074252489
1.074252489
55303.20792
55303.33818
55303.68853
55304.38975
55305.58141
55307.30539
55309.36337
55311.31417
28967.39173
15929.13572
7404.262549
2827.08391
893.1873464
247.0571709
66.69338372
20.05081273
7.457713434
3.580445957
2.17843465
1.595091685
1.327585507
1.198121172
1.134182648
1.102678696
1.087403403
1.080171011
1.076840541
1.07535166
1.074705915
1.074434212
1.074323274
1.074279298
1.074262367
1.074256031
1.074253725
1.074252909
1.074252628
1.074252534
1.074252503
1.074252493
1.07425249
1.074252489
1.074252489
1.074252489
1.074252489
1.074252489
1.074252489
1.074252489
1.074252489
1.074252489
55303.13729
55303.26172
55303.59635
55304.26581
55305.40511
55307.07361
55309.07459
57388.62262
26073.86953
14250.4332
6546.179247
2477.167826
780.4629361
217.3138598
59.65792539
18.36864233
7.007210588
3.438487426
2.126100731
1.573353525
1.317858467
1.193607497
1.132068638
1.101696463
1.086955225
1.0799713
1.076753876
1.075315081
1.074690905
1.074428225
1.074320951
1.074278422
1.074262045
1.074255916
1.074253685
1.074252896
1.074252624
1.074252532
1.074252503
1.074252493
1.07425249
1.074252489
1.074252489
1.074252489
1.074252489
1.074252489
1.074252489
1.074252489
1.074252489
1.074252489
55303.0007
55303.11494
55303.42236
55304.03757
55305.09065
55306.66559
55308.58335
56952.31183
21105.43752
11293.9443
5082.166519
1894.858046
595.7625413
168.6599447
47.99087957
15.5078293
6.218269355
3.183203288
2.03006481
1.532911996
1.299606535
1.185094616
1.12806966
1.099835142
1.086105016
1.079592173
1.076589269
1.075245578
1.074662377
1.074416841
1.074316534
1.074276755
1.074261432
1.074255697
1.074253609
1.07425287
1.074252615
1.07425253
1.074252502
1.074252493
1.07425249
1.074252489
1.074252489
1.074252489
1.074252489
1.074252489
1.074252489
1.074252489
1.074252489
1.074252489
55302.80605
55302.90753
55303.18108
55303.72899
55304.67398
55306.11183
55307.94252
56584.72053
14967.6184
7801.98932
3425.381205
1258.656071
397.8978157
116.3821162
35.11295763
12.20916447
5.263541019
2.86083379
1.904845205
1.479033031
1.27496127
1.173507403
1.12260088
1.097282603
1.084937062
1.079070761
1.0763627
1.075149852
1.074623065
1.074401147
1.074310443
1.074274455
1.074260587
1.074255395
1.074253504
1.074252834
1.074252603
1.074252526
1.0742525
1.074252492
1.07425249
1.074252489
1.074252489
1.074252489
1.074252489
1.074252489
1.074252489
1.074252489
1.074252489
1.074252489
55302.56311
55302.65076
55302.88765
55303.36296
55304.18995
55305.46594
55307.18559
56399.02941
9043.764519
4601.695111
1979.862072
724.0854515
234.1481901
72.44971675
23.79233939
9.119424711
4.30831769
2.519677423
1.766728709
1.417944243
1.246535171
1.160005102
1.11618966
1.09427934
1.083559754
1.07845495
1.076094816
1.075036573
1.07457651
1.074382551
1.074303221
1.074271727
1.074259585
1.074255036
1.074253379
1.074252792
1.074252589
1.074252521
1.074252499
1.074252492
1.07425249
1.074252489
1.074252489
1.074252489
1.074252489
1.074252489
1.074252489
1.074252489
1.074252489
1.074252489
55302.28237
55302.35615
55302.55593
55302.95705
55303.65786
55304.74589
55306.32455
56296.427
4520.711918
2275.575569
975.4817313
363.1014618
123.5123445
41.66721445
15.30613197
6.602388211
3.464733912
2.197825461
1.630070795
1.355573332
1.216941974
1.145783434
1.10938982
1.091080575
1.082088841
1.077796079
1.075807812
1.074915078
1.074526535
1.074362573
1.074295457
1.074268792
1.074258506
1.07425465
1.074253244
1.074252746
1.074252574
1.074252516
1.074252498
1.074252491
1.07425249
1.074252489
1.074252489
1.074252489
1.074252489
1.074252489
1.074252489
1.074252489
1.074252489
1.074252489
55301.97429
55302.03492
55302.19914
55302.52863
55303.10092
55303.99043
55305.3388
56315.57812
1838.095721
940.3724939
414.0888649
162.4195442
60.26031595
22.89418373
9.634175654
4.742759146
2.782174162
1.918117689
1.505164404
1.296658306
1.188412458
1.131903202
1.102703863
1.087920942
1.080631583
1.077141962
1.075522431
1.074794119
1.074476728
1.074342644
1.074287705
1.074265861
1.074257427
1.074254263
1.07425311
1.0742527
1.074252559
1.074252512
1.074252496
1.074252491
1.074252489
1.074252489
1.074252489
1.074252489
1.074252489
1.074252489
1.074252489
1.074252489
1.074252489
1.074252489
55301.64851
55301.69724
55301.82916
55302.09353
55302.5484
55303.27857
55304.39226
56389.41417
618.3727503
333.7940113
157.2662494
67.75655744
28.45868235
12.51425271
6.12400339
3.456239388
2.262873726
1.689410046
1.397808684
1.244357702
1.16257232
1.119176714
1.096527567
1.084988313
1.079274734
1.076531534
1.075255647
1.074680881
1.074430044
1.074323945
1.074280426
1.074263105
1.074256412
1.074253899
1.074252983
1.074252657
1.074252545
1.074252507
1.074252495
1.074252491
1.074252489
1.074252489
1.074252489
1.074252489
1.074252489
1.074252489
1.074252489
1.074252489
1.074252489
1.074252489
55301.31325
55301.35139
55301.45439
55301.65869
55302.00541
55302.59145
55303.35456
56545.56093
184.3279866
108.9319775
57.16244135
28.07397055
13.72550986
7.089702564
4.043948869
2.601375164
1.884265024
1.510891799
1.310020229
1.200284298
1.140384003
1.108121192
1.091123097
1.082410025
1.078077948
1.075991824
1.075019325
1.074580418
1.074388571
1.074307314
1.074273945
1.074260649
1.074255507
1.074253575
1.074252869
1.074252619
1.074252532
1.074252503
1.074252493
1.07425249
1.074252489
1.074252489
1.074252489
1.074252489
1.074252489
1.074252489
1.074252489
1.074252489
1.074252489
1.074252489
55300.97514
55301.00384
55301.08086
55301.23036
55301.48094
55301.88956
55302.21334
56820.02349
54.54669067
36.10150309
21.64692755
12.36901818
7.108680865
4.304478545
2.830904212
2.045444928
1.616259689
1.376577572
1.241188755
1.164792993
1.122212239
1.098970206
1.08661899
1.080251398
1.077072684
1.07553736
1.074819934
1.074495512
1.07435347
1.074293221
1.074268446
1.074258564
1.074254738
1.074253299
1.074252773
1.074252586
1.074252521
1.074252499
1.074252492
1.07425249
1.074252489
1.074252489
1.074252489
1.074252489
1.074252489
1.074252489
1.074252489
1.074252489
1.074252489
1.074252489
55300.63927
55300.65875
55300.71093
55300.81133
55300.97508
55301.19351
55301.03534
57280.30257
18.12133215
13.43980186
9.231663878
6.123663527
4.095097143
2.856796111
2.121542967
1.687449145
1.430608679
1.278590625
1.189187157
1.137360703
1.107959208
1.091724278
1.083030037
1.078523818
1.076265555
1.075171548
1.074659104
1.074426906
1.074325064
1.074281799
1.074263985
1.07425687
1.074254112
1.074253074
1.074252694
1.074252559
1.074252512
1.074252496
1.074252491
1.07425249
1.074252489
1.074252489
1.074252489
1.074252489
1.074252489
1.074252489
1.074252489
1.074252489
1.074252489
1.074252489
55300.30963
55300.31858
55300.34601
55300.3996
55300.46946
55300.48014
55299.88981
58006.03537
7.367262178
6.015094905
4.648991302
3.505527577
2.660810191
2.081986536
1.70177519
1.45798664
1.304311945
1.209066108
1.151221223
1.116949936
1.097221447
1.086219908
1.080288036
1.077198448
1.075644376
1.074889296
1.074534747
1.07437376
1.074303024
1.074272925
1.074260514
1.07425555
1.074253624
1.074252898
1.074252633
1.074252538
1.074252505
1.074252494
1.07425249
1.074252489
1.074252489
1.074252489
1.074252489
1.074252489
1.074252489
1.074252489
1.074252489
1.074252489
1.074252489
1.074252489
55299.98964
55299.98612
55299.9923
55300.00707
55299.9935
55299.77813
55298.82935
59371.60177
3.764832586
3.299528172
2.790217013
2.321030295
1.939313494
1.653241916
1.450202091
1.311582646
1.219898424
1.161039141
1.124392486
1.102303161
1.08943526
1.082199659
1.078274942
1.076221598
1.075185128
1.074680089
1.074442373
1.074334208
1.074286593
1.074266299
1.074257919
1.074254563
1.074253259
1.074252767
1.074252587
1.074252522
1.0742525
1.074252492
1.07425249
1.074252489
1.074252489
1.074252489
1.074252489
1.074252489
1.074252489
1.074252489
1.074252489
1.074252489
1.074252489
1.074252489
55299.68288
55299.66628
55299.65277
55299.62988
55299.50758
55299.08277
55297.88603
62897.98373
2.364995631
2.173527722
1.955942534
1.742733257
1.557324718
1.409276317
1.29821497
1.218883851
1.164545017
1.128742204
1.106028468
1.092153028
1.083992407
1.079371678
1.076852198
1.07552867
1.074858382
1.074530866
1.074376339
1.074305879
1.074274805
1.074261538
1.074256051
1.074253851
1.074252995
1.074252672
1.074252553
1.074252511
1.074252496
1.074252491
1.07425249
1.074252489
1.074252489
1.074252489
1.074252489
1.074252489
1.074252489
1.074252489
1.074252489
1.074252489
1.074252489
1.074252489
55299.39365
55299.36439
55299.31926
55299.23391
55298.99699
55298.39705
55297.01379
62137.16733
1.74390948
1.652647833
1.548040852
1.442560746
1.347224282
1.267976802
1.206310686
1.16088862
1.129009572
1.107611778
1.09384797
1.085353672
1.080319806
1.077453017
1.075882795
1.075054898
1.074634327
1.074428284
1.074330845
1.074286324
1.074266653
1.07425824
1.074254756
1.074253357
1.074252812
1.074252606
1.07425253
1.074252503
1.074252494
1.07425249
1.074252489
1.074252489
1.074252489
1.074252489
1.074252489
1.074252489
1.074252489
1.074252489
1.074252489
1.074252489
1.074252489
1.074252489
55299.12341
55299.07132
55298.97975
55298.81946
55298.46958
55297.73571
55296.23182
56612.80181
1.441168011
1.391591314
1.336029514
1.28018142
1.229008289
1.185593929
1.151090239
1.12518911
1.106721774
1.094169756
1.086016798
1.080947172
1.077925099
1.076195932
1.075245169
1.074742254
1.074486057
1.074360233
1.074300599
1.074273298
1.074261213
1.074256036
1.074253889
1.074253025
1.074252689
1.074252561
1.074252514
1.074252498
1.074252492
1.07425249
1.074252489
1.074252489
1.074252489
1.074252489
1.074252489
1.074252489
1.074252489
1.074252489
1.074252489
1.074252489
1.074252489
1.074252489
55298.86215
55298.78312
55298.64522
55298.40056
55297.94916
55297.12022
55295.59096
55299.67641
1.284301193
1.253661829
1.221563092
1.190296806
1.161880388
1.13769314
1.118317307
1.103639973
1.093085289
1.085857959
1.081134343
1.078182023
1.076414575
1.07539962
1.074839816
1.074542888
1.074391254
1.074316618
1.074281172
1.074264915
1.074257706
1.074254613
1.074253328
1.074252811
1.074252609
1.074252532
1.074252504
1.074252494
1.074252491
1.074252489
1.074252489
1.074252489
1.074252489
1.074252489
1.074252489
1.074252489
1.074252489
1.074252489
1.074252489
1.074252489
1.074252489
1.074252489
55298.62654
55298.52196
55298.32524
55297.99662
55297.45207
55296.5426
55295.0313
55292.8943
1.199044705
1.178360376
1.158466252
1.140064275
1.123786124
1.11009956
1.099181086
1.090910586
1.08495209
1.080861417
1.078180444
1.076500269
1.075491835
1.074911353
1.074590463
1.074419898
1.074332621
1.074289581
1.074269105
1.074259697
1.074255519
1.074253724
1.074252978
1.074252677
1.074252559
1.074252514
1.074252498
1.074252492
1.07425249
1.074252489
1.074252489
1.074252489
1.074252489
1.074252489
1.074252489
1.074252489
1.074252489
1.074252489
1.074252489
1.074252489
1.074252489
1.074252489
55298.41004
55298.27943
55298.02661
55297.6206
55296.98804
55296.00689
55294.57717
55292.80233
1.151234787
1.136402019
1.123303081
1.111933924
1.102294889
1.094402882
1.088206446
1.083555704
1.080221953
1.077939046
1.076444374
1.075507724
1.074945259
1.0746212
1.074441859
1.074346411
1.074297504
1.074273353
1.074261847
1.074256554
1.0742542
1.074253187
1.074252765
1.074252595
1.074252529
1.074252503
1.074252494
1.074252491
1.074252489
1.074252489
1.074252489
1.074252489
1.074252489
1.074252489
1.074252489
1.074252489
1.074252489
1.074252489
1.074252489
1.074252489
1.074252489
1.074252489
55298.1965
55298.04409
55297.74374
55297.26961
55296.55787
55295.52858
55294.23845
55292.73572
1.123647556
1.112566077
1.103512998
1.096160444
1.090243602
1.085581398
1.082018397
1.079393334
1.077535082
1.076273172
1.075451477
1.074938335
1.074630826
1.074453847
1.074355941
1.074303827
1.074277113
1.074263912
1.074257617
1.074254719
1.074253428
1.074252873
1.074252641
1.074252547
1.074252511
1.074252497
1.074252492
1.07425249
1.074252489
1.074252489
1.074252489
1.074252489
1.074252489
1.074252489
1.074252489
1.074252489
1.074252489
1.074252489
1.074252489
1.074252489
1.074252489
1.074252489
55297.96211
55297.79145
55297.44853
55296.90832
55296.11914
55295.08272
55293.95233
55292.69449
1.106964931
1.098591323
1.092160383
1.087238544
1.083484886
1.080657252
1.078571785
1.077076344
1.076038822
1.075344543
1.074897234
1.074619996
1.074454732
1.074359961
1.074307656
1.074279855
1.074265615
1.074258579
1.074255224
1.074253679
1.074252991
1.074252694
1.07425257
1.07425252
1.074252501
1.074252493
1.07425249
1.074252489
1.074252489
1.074252489
1.074252489
1.074252489
1.074252489
1.074252489
1.074252489
1.074252489
1.074252489
1.074252489
1.074252489
1.074252489
1.074252489
1.074252489
55297.66567
55297.47463
55297.08294
55296.46642
55295.60361
55294.63603
55293.67483
55292.67208
1.09613921
1.089940565
1.085384727
1.082056659
1.079636087
1.077892004
1.076654844
1.075796029
1.075215522
1.074834913
1.074593511
1.074445658
1.074358298
1.074308526
1.074281185
1.074266702
1.074259299
1.074255647
1.074253907
1.074253106
1.074252749
1.074252595
1.074252531
1.074252505
1.074252495
1.074252491
1.07425249
1.074252489
1.074252489
1.074252489
1.074252489
1.074252489
1.074252489
1.074252489
1.074252489
1.074252489
1.074252489
1.074252489
1.074252489
1.074252489
1.074252489
1.074252489
55297.22053
55296.99833
55296.54027
55295.84417
55294.98142
55294.1567
55293.39289
55292.65664
1.088433914
1.084119412
1.081043713
1.078870839
1.0773474
1.076290091
1.075566431
1.075080026
1.074760274
1.074555439
1.074427949
1.074351026
1.074306104
1.07428074
1.074266901
1.074259607
1.074255893
1.074254065
1.074253196
1.074252796
1.074252619
1.074252542
1.07425251
1.074252497
1.074252492
1.07425249
1.074252489
1.074252489
1.074252489
1.074252489
1.074252489
1.074252489
1.074252489
1.074252489
1.074252489
1.074252489
1.074252489
1.074252489
1.074252489
1.074252489
1.074252489
1.074252489
55296.40841
55296.13914
55295.61647
55294.91443
55294.22937
55293.63325
55293.10866
55292.6313
1.082334259
1.079746222
1.077949692
1.076710142
1.075862591
1.075289752
1.074908038
1.074657981
1.074497426
1.074396687
1.074335085
1.074298458
1.074277322
1.0742655
1.074259097
1.074255742
1.074254041
1.074253206
1.07425281
1.074252629
1.074252548
1.074252513
1.074252498
1.074252492
1.07425249
1.074252489
1.074252489
1.074252489
1.074252489
1.074252489
1.074252489
1.074252489
1.074252489
1.074252489
1.074252489
1.074252489
1.074252489
1.074252489
1.074252489
1.074252489
1.074252489
1.074252489
55294.62099
55294.3492
55293.91699
55293.53193
55293.23161
55292.99196
55292.7875
55292.60061
1.076912929
1.076026777