/*--------------------------------*- C++ -*----------------------------------*\
  =========                 |
  \\      /  F ield         | OpenFOAM: The Open Source CFD Toolbox
   \\    /   O peration     | Website:  https://openfoam.org
    \\  /    A nd           | Version:  6
     \\/     M anipulation  |
\*---------------------------------------------------------------------------*/
FoamFile
{
    version     2.0;
    format      ascii;
    class       volScalarField;
    location    "0.16";
    object      Temperature;
}
// * * * * * * * * * * * * * * * * * * * * * * * * * * * * * * * * * * * * * //

dimensions      [0 0 0 1 0 0 0];

internalField   nonuniform List<scalar> 
2500
(
330.2479226
325.8491535
319.0861798
313.2936657
308.9240552
305.5228547
302.6795668
300.1252294
300.061732
300.041187
300.0273543
300.017962
300.0116251
300.0073997
300.0046231
300.0028293
300.0016927
300.0009883
300.0005621
300.000311
300.0001672
300.0000873
300.0000442
300.0000217
300.0000103
300.0000048
300.0000021
300.0000009
300.0000004
300.0000002
300.0000001
300
300
300
300
300
300
300
300
300
300
300
300
300
300
300
300
300
300
300
362.4068166
357.1627641
347.4030984
335.1071211
323.9307395
314.7933629
307.1679412
300.3553469
300.1871328
300.1273451
300.0857681
300.0570454
300.0373885
300.0240943
300.0152313
300.0094233
300.005693
300.003352
300.0019203
300.0010689
300.0005775
300.0003026
300.0001537
300.0000757
300.0000361
300.0000167
300.0000075
300.0000033
300.0000014
300.0000006
300.0000002
300.0000001
300
300
300
300
300
300
300
300
300
300
300
300
300
300
300
300
300
300
379.1681604
374.416581
364.993075
351.5568813
336.2302097
322.7813446
311.2500811
300.591666
300.3275998
300.228334
300.1573582
300.1071103
300.0718271
300.0473127
300.0305209
300.0192278
300.0118009
300.0070418
300.004079
300.002291
300.0012467
300.000657
300.0003352
300.0001656
300.0000792
300.0000367
300.0000165
300.0000072
300.000003
300.0000012
300.0000005
300.0000002
300.0000001
300
300
300
300
300
300
300
300
300
300
300
300
300
300
300
300
300
389.021297
384.7094688
376.1726493
363.4901544
347.1262559
330.4565002
315.4069367
300.8650758
300.5041123
300.3622398
300.2575171
300.1807771
300.1248336
300.0844563
300.0557789
300.0358535
300.0223763
300.0135359
300.007927
300.0044908
300.0024602
300.0013031
300.0006674
300.0003306
300.0001584
300.0000735
300.000033
300.0000144
300.0000061
300.0000025
300.000001
300.0000004
300.0000001
300.0000001
300
300
300
300
300
300
300
300
300
300
300
300
300
300
300
300
395.8705976
391.8752373
384.1015307
372.4760819
356.7164689
337.9498105
319.6101768
301.2083811
300.7503767
300.5601429
300.4131858
300.3002136
300.2137602
300.1484639
300.1002104
300.065558
300.041491
300.0253738
300.0149844
300.0085428
300.0047019
300.0024989
300.0012829
300.0006365
300.0003053
300.0001417
300.0000636
300.0000277
300.0000117
300.0000048
300.0000019
300.0000007
300.0000003
300.0000001
300
300
300
300
300
300
300
300
300
300
300
300
300
300
300
300
401.4645762
397.7927187
390.7652379
380.1764146
365.3238883
345.7927478
324.0699552
301.6854979
301.1259868
300.8771157
300.6722094
300.5047401
300.3692792
300.2621015
300.1799277
300.1192367
300.0761966
300.0469311
300.027858
300.0159398
300.0087948
300.0046815
300.0024055
300.0011939
300.0005727
300.0002657
300.0001193
300.0000519
300.0000219
300.0000089
300.0000035
300.0000014
300.0000005
300.0000002
300.0000001
300
300
300
300
300
300
300
300
300
300
300
300
300
300
300
406.7095825
403.4801335
397.3854644
387.9826101
374.1908652
354.6343088
329.5243988
302.4185101
301.7370575
301.4101725
301.1184661
300.8629472
300.644585
300.4645998
300.3225147
300.2154217
300.1384138
300.0855617
300.050905
300.0291649
300.0161011
300.0085713
300.0044029
300.002184
300.0010469
300.0004853
300.0002177
300.0000946
300.0000398
300.0000163
300.0000064
300.0000025
300.0000009
300.0000003
300.0000001
300
300
300
300
300
300
300
300
300
300
300
300
300
300
300
412.1770109
409.5221006
404.6286006
396.7110033
384.2477552
365.0839073
337.1223522
303.6200649
302.7677657
302.3262617
301.8954344
301.4913638
301.1293514
300.8215595
300.5737278
300.3846199
300.2476259
300.1532056
300.0911576
300.0522032
300.0287966
300.0153137
300.0078571
300.0038925
300.0018634
300.0008627
300.0003865
300.0001677
300.0000705
300.0000288
300.0000114
300.0000044
300.0000016
300.0000006
300.0000002
300.0000001
300
300
300
300
300
300
300
300
300
300
300
300
300
300
418.2986401
416.2342077
412.6848509
406.5280999
395.6270386
377.0483008
346.9677664
305.5850447
304.5237158
303.9042778
303.2416298
302.5820442
301.9699168
301.438964
301.0067812
300.6752079
300.4344748
300.2685013
300.1595188
300.0911963
300.050216
300.0266558
300.0136519
300.0067515
300.0032267
300.0014914
300.0006671
300.000289
300.0001214
300.0000494
300.0000195
300.0000075
300.0000028
300.000001
300.0000004
300.0000001
300
300
300
300
300
300
300
300
300
300
300
300
300
300
425.2979476
423.8944238
421.4482889
417.2232438
408.2736016
390.6845539
358.8976254
308.9855236
307.5158488
306.6007646
305.542591
304.4414267
303.3967581
302.4816732
301.7342597
301.160803
300.7451531
300.4593106
300.2721653
300.1551954
300.0852446
300.0451432
300.0230691
300.011385
300.0054306
300.0025055
300.0011189
300.000484
300.0002029
300.0000825
300.0000326
300.0000125
300.0000047
300.0000017
300.0000006
300.0000002
300.0000001
300
300
300
300
300
300
300
300
300
300
300
300
300
432.7869608
431.9711576
430.7203905
428.3617581
421.9300984
406.4638224
373.7192519
314.9480221
312.597707
311.148012
309.4028914
307.5413296
305.7588944
304.1956029
302.9218421
301.9484399
301.2461074
300.7653344
300.451956
300.2568967
300.1406905
300.0743035
300.0378757
300.0186495
300.008877
300.0040876
300.0018222
300.000787
300.0003295
300.0001338
300.0000527
300.0000202
300.0000075
300.0000027
300.000001
300.0000003
300.0000001
300
300
300
300
300
300
300
300
300
300
300
300
300
441.0987005
440.6191465
440.2283604
439.5665446
436.0427937
424.2311564
392.299244
324.4705125
321.0741299
318.6790646
315.7369033
312.5792517
309.561911
306.9306434
304.8015599
303.1859549
302.0280055
301.2401726
300.7294661
300.4131439
300.2255212
300.1187533
300.0603715
300.029654
300.0140839
300.0064723
300.00288
300.0012417
300.0005191
300.0002105
300.0000829
300.0000317
300.0000118
300.0000043
300.0000015
300.0000005
300.0000002
300.0000001
300
300
300
300
300
300
300
300
300
300
300
300
450.267912
450.1657086
450.3575089
450.8045912
450.3834457
443.9194598
416.3447904
339.7793397
334.9334579
330.8803009
325.8691289
320.5384772
315.5014823
311.1581528
307.680292
305.0657668
303.207226
301.9517961
301.1430615
300.6448786
300.3507965
300.1841464
300.0933555
300.0457409
300.0216754
300.0099408
300.0044153
300.0019005
300.0007932
300.0003213
300.0001263
300.0000483
300.0000179
300.0000065
300.0000023
300.0000008
300.0000003
300.0000001
300
300
300
300
300
300
300
300
300
300
300
300
460.2437459
460.5325262
461.4120643
463.1301529
465.3874787
465.746696
446.2996804
364.5057759
357.1958517
350.1653245
341.6231286
332.7286391
324.4777488
317.4729037
311.9369328
307.8210116
304.9224862
302.9800791
301.7372724
300.9761462
300.5290955
300.2768604
300.1399618
300.0684037
300.0323416
300.0148026
300.0065627
300.0028201
300.0011753
300.0004754
300.0001867
300.0000712
300.0000264
300.0000095
300.0000033
300.0000011
300.0000004
300.0000001
300
300
300
300
300
300
300
300
300
300
300
300
470.990899
471.6433915
473.396878
476.8024688
482.4675393
490.2453787
483.84122
403.2594387
392.1370236
379.7996155
365.3549075
350.7746141
337.5688324
326.565733
317.999958
311.7092521
307.3239456
304.4099567
302.5587166
301.4317763
300.7732525
300.4033331
300.2033246
300.0991235
300.0467621
300.0213603
300.0094532
300.0040558
300.0016879
300.0006818
300.0002674
300.0001019
300.0000378
300.0000136
300.0000048
300.0000016
300.0000005
300.0000002
300.0000001
300
300
300
300
300
300
300
300
300
300
300
482.4680968
483.4750185
486.1965933
491.5661168
500.838041
516.7508953
529.7034928
462.0828647
445.4878975
423.8878788
399.8615729
376.5095786
355.9370662
339.1518939
326.2972387
316.979509
310.5526458
306.319168
303.6490845
302.0335177
301.0943011
300.5690073
300.2860543
300.1391172
300.0654884
300.0298571
300.013191
300.0056507
300.0023484
300.0009474
300.0003712
300.0001413
300.0000523
300.0000188
300.0000066
300.0000023
300.0000008
300.0000002
300.0000001
300
300
300
300
300
300
300
300
300
300
300
494.5998623
496.0064548
499.8442221
507.6339326
521.4258253
546.5389603
583.1084599
547.8001035
524.3047809
487.07939
448.0783747
411.7247176
380.6440883
355.8440704
337.1734836
323.8209533
314.7098621
308.7606012
305.0353121
302.7947459
301.4987156
300.776937
300.3895543
300.1890131
300.0887945
300.0404093
300.0178242
300.0076244
300.0031645
300.0012751
300.0004991
300.0001898
300.0000702
300.0000253
300.0000089
300.000003
300.000001
300.0000003
300.0000001
300
300
300
300
300
300
300
300
300
300
300
507.2467787
509.13842
514.3302636
525.0599062
544.6084426
579.2363576
641.4469477
666.8221169
636.1816061
573.8106269
512.4822801
457.7442587
412.3666381
376.970977
350.7787931
332.2967036
319.8189846
311.7409927
306.7180213
303.7143698
301.98529
301.0262345
300.5132711
300.248499
300.1165164
300.0529356
300.0233144
300.0099596
300.0041288
300.0016619
300.0006498
300.000247
300.0000913
300.0000328
300.0000115
300.0000039
300.0000013
300.0000004
300.0000001
300
300
300
300
300
300
300
300
300
300
300
520.1715577
522.6494929
529.4798932
543.7371831
570.4153635
617.5133629
705.8673939
823.1652702
787.4006904
686.9465427
594.1778233
514.8419354
451.0377623
402.363293
366.9442763
342.2733214
325.7865085
315.1998593
308.6604192
304.7711273
302.5422809
301.3106767
300.654032
300.3160154
300.1479142
300.0670965
300.029511
300.0125913
300.0052141
300.0020967
300.0008191
300.0003111
300.0001149
300.0000413
300.0000144
300.0000049
300.0000016
300.0000005
300.0000002
300.0000001
300
300
300
300
300
300
300
300
300
300
533.015164
536.1848717
544.959018
563.4725729
599.0270299
664.085638
788.3188988
1015.057628
979.7907928
825.8758311
691.7757987
581.5977279
495.4858297
431.1550444
385.0747973
353.3639579
332.3724616
318.9944132
310.7807566
305.9198938
303.1456404
301.6178774
300.8056662
300.3885868
300.1815981
300.0822632
300.0361379
300.0154022
300.006372
300.0025601
300.0009994
300.0003793
300.00014
300.0000503
300.0000176
300.000006
300.000002
300.0000006
300.0000002
300.0000001
300
300
300
300
300
300
300
300
300
300
545.2835794
549.2296946
560.1853771
583.5394452
629.1769484
715.5190627
877.8867013
1233.237494
1207.02732
984.540728
800.3810578
654.3942754
543.1920507
461.6711008
404.0990907
364.9075081
339.1824003
322.8968936
312.9516846
307.0916966
303.7591746
301.9294309
300.9591012
300.4618774
300.2155586
300.097532
300.0428009
300.0182253
300.0075337
300.0030246
300.0011799
300.0004475
300.0001651
300.0000593
300.0000207
300.0000071
300.0000023
300.0000008
300.0000002
300.0000001
300
300
300
300
300
300
300
300
300
300
556.3652492
561.1276156
574.3802555
602.8997231
659.3642516
768.9382869
975.3025879
1460.783025
1451.645833
1150.212279
911.1613237
727.3149724
590.3081287
491.4759191
422.5164768
376.0039522
345.691206
326.6094231
315.0090151
308.1986405
304.3372013
302.2222913
301.1030533
300.5305251
300.2473227
300.1117957
300.0490186
300.0208571
300.0086159
300.003457
300.0013479
300.000511
300.0001884
300.0000676
300.0000236
300.000008
300.0000027
300.0000009
300.0000003
300.0000001
300
300
300
300
300
300
300
300
300
300
565.5743483
571.1215127
586.6033123
620.2481875
687.770259
821.5236917
1076.430682
1672.533101
1684.497983
1303.937376
1011.964783
792.6716417
632.0414527
517.6325504
438.5618182
385.6150917
351.3024193
329.7978157
316.7703823
309.1438963
304.8297337
302.4713829
301.2253028
300.5887467
300.2742319
300.1238674
300.0542762
300.0230809
300.0095297
300.0038219
300.0014896
300.0005645
300.0002081
300.0000746
300.0000261
300.0000089
300.0000029
300.000001
300.0000003
300.0000001
300
300
300
300
300
300
300
300
300
300
572.2205101
578.4114835
595.7446588
633.7359505
710.8836983
865.1162042
1169.381258
1835.871279
1868.920647
1423.535715
1089.288844
842.2468331
663.4192509
537.1626885
450.4768229
392.7211952
355.4366987
332.1403706
318.0615024
309.8354723
305.1895141
302.6530951
301.3143835
300.6311307
300.293805
300.1326419
300.0580954
300.0246954
300.0101927
300.0040866
300.0015923
300.0006032
300.0002223
300.0000797
300.0000278
300.0000095
300.0000031
300.000001
300.0000003
300.0000001
300
300
300
300
300
300
300
300
300
300
575.7188822
582.2833726
600.7047625
641.3088808
724.5348888
892.0048263
1231.918015
1928.531791
1969.919321
1488.941148
1131.351482
869.0461427
680.2915535
547.6195698
456.8348122
396.5029147
357.6321504
333.3821947
318.744977
310.2011425
305.3795636
302.7490044
301.3613687
300.6534729
300.3041176
300.1372629
300.060106
300.0255451
300.0105416
300.0042258
300.0016463
300.0006236
300.0002298
300.0000824
300.0000288
300.0000098
300.0000032
300.000001
300.0000003
300.0000001
300
300
300
300
300
300
300
300
300
300
575.7188825
582.2833724
600.7047606
641.3088733
724.5348674
892.0047853
1231.917899
1928.531788
1969.919302
1488.941151
1131.351481
869.046142
680.2915531
547.6195697
456.8348121
396.5029146
357.6321504
333.3821947
318.744977
310.2011425
305.3795636
302.7490044
301.3613687
300.6534729
300.3041176
300.1372629
300.060106
300.0255451
300.0105416
300.0042258
300.0016463
300.0006236
300.0002298
300.0000824
300.0000288
300.0000098
300.0000032
300.000001
300.0000003
300.0000001
300
300
300
300
300
300
300
300
300
300
572.2205118
578.4114844
595.7446563
633.7359352
710.8836504
865.1161048
1169.381047
1835.871273
1868.920639
1423.535707
1089.28884
842.2468312
663.41925
537.1626882
450.4768227
392.7211952
355.4366987
332.1403706
318.0615024
309.8354723
305.1895141
302.6530952
301.3143835
300.6311307
300.293805
300.1326419
300.0580954
300.0246954
300.0101927
300.0040866
300.0015923
300.0006032
300.0002223
300.0000797
300.0000278
300.0000095
300.0000031
300.000001
300.0000003
300.0000001
300
300
300
300
300
300
300
300
300
300
565.5743519
571.121515
586.6033095
620.2481663
687.7701921
821.5235494
1076.43044
1672.533088
1684.497964
1303.937363
1011.964777
792.6716394
632.0414518
517.6325501
438.5618181
385.6150917
351.3024194
329.7978157
316.7703823
309.1438963
304.8297337
302.4713829
301.2253028
300.5887467
300.2742319
300.1238674
300.0542762
300.0230809
300.0095297
300.0038219
300.0014896
300.0005645
300.0002081
300.0000746
300.0000261
300.0000089
300.0000029
300.000001
300.0000003
300.0000001
300
300
300
300
300
300
300
300
300
300
556.3652549
561.1276187
574.3802508
602.8996937
659.3641612
768.938068
975.302334
1460.783012
1451.645811
1150.212267
911.1613192
727.314971
590.3081284
491.4759192
422.5164769
376.0039524
345.6912061
326.6094232
315.0090151
308.1986405
304.3372013
302.2222913
301.1030533
300.5305251
300.2473227
300.1117957
300.0490186
300.0208571
300.0086159
300.003457
300.0013479
300.000511
300.0001884
300.0000676
300.0000236
300.000008
300.0000027
300.0000009
300.0000003
300.0000001
300
300
300
300
300
300
300
300
300
300
545.2835874
549.2296976
560.1853682
583.5394059
629.1768455
715.5188598
877.8864745
1233.237479
1207.027305
984.5407216
800.3810566
654.3942758
543.1920515
461.6711015
404.0990912
364.9075084
339.1824005
322.8968937
312.9516847
307.0916966
303.7591747
301.9294309
300.9591012
300.4618774
300.2155586
300.097532
300.0428009
300.0182253
300.0075337
300.0030246
300.0011799
300.0004475
300.0001651
300.0000593
300.0000207
300.0000071
300.0000023
300.0000008
300.0000002
300.0000001
300
300
300
300
300
300
300
300
300
300
533.015175
536.184874
544.9590015
563.4725171
599.0268989
664.0854196
788.318678
1015.057615
979.79079
825.8758317
691.7758011
581.5977304
495.4858315
431.1550456
385.0747982
353.3639584
332.3724619
318.9944134
310.7807567
305.9198939
303.1456404
301.6178774
300.8056662
300.3885868
300.1815981
300.0822632
300.0361379
300.0154022
300.006372
300.0025601
300.0009994
300.0003793
300.00014
300.0000503
300.0000176
300.000006
300.000002
300.0000006
300.0000002
300.0000001
300
300
300
300
300
300
300
300
300
300
520.1715732
522.6494946
529.4798665
543.7371037
570.4151855
617.5131236
705.8671796
823.1652703
787.4006933
686.9465463
594.1778278
514.8419391
451.0377649
402.3632947
366.9442774
342.273322
325.7865089
315.1998596
308.6604193
304.7711273
302.5422809
301.3106767
300.654032
300.3160154
300.1479142
300.0670965
300.029511
300.0125913
300.0052141
300.0020967
300.0008191
300.0003111
300.0001149
300.0000413
300.0000144
300.0000049
300.0000016
300.0000005
300.0000002
300.0000001
300
300
300
300
300
300
300
300
300
300
507.2468016
509.1384236
514.330228
525.0598007
544.6082161
579.2361441
641.4467409
666.8221307
636.1816071
573.8106302
512.4822849
457.7442627
412.366641
376.9709789
350.7787943
332.2967044
319.818985
311.7409929
306.7180214
303.7143699
301.98529
301.0262346
300.5132711
300.248499
300.1165164
300.0529356
300.0233144
300.0099596
300.0041288
300.0016619
300.0006498
300.000247
300.0000913
300.0000328
300.0000115
300.0000039
300.0000013
300.0000004
300.0000001
300
300
300
300
300
300
300
300
300
300
300
494.5998968
496.0064664
499.8441883
507.6338172
521.4256183
546.5389037
583.1084644
547.8001224
524.3047794
487.0793922
448.0783789
411.7247213
380.6440909
355.8440722
337.1734847
323.820954
314.7098625
308.7606015
305.0353122
302.794746
301.4987156
300.7769371
300.3895543
300.1890131
300.0887945
300.0404093
300.0178242
300.0076244
300.0031645
300.0012751
300.0004991
300.0001898
300.0000702
300.0000253
300.0000089
300.000003
300.000001
300.0000003
300.0000001
300
300
300
300
300
300
300
300
300
300
300
482.468145
483.4750449
486.1965773
491.5660287
500.838005
516.7513182
529.7037457
462.0828862
445.4878959
423.8878801
399.8615762
376.5095817
355.9370684
339.1518954
326.2972396
316.9795096
310.5526461
306.3191682
303.6490846
302.0335177
301.0943011
300.5690074
300.2860543
300.1391172
300.0654884
300.0298571
300.013191
300.0056507
300.0023484
300.0009474
300.0003712
300.0001413
300.0000523
300.0000188
300.0000066
300.0000023
300.0000008
300.0000002
300.0000001
300
300
300
300
300
300
300
300
300
300
300
470.9909551
471.6434281
473.3968678
476.8023735
482.4675756
490.2457645
483.8415326
403.2594827
392.1370254
379.7996167
365.35491
350.7746165
337.5688342
326.5657342
317.9999588
311.7092526
307.3239459
304.4099569
302.5587167
301.4317763
300.7732525
300.4033331
300.2033246
300.0991235
300.0467621
300.0213603
300.0094532
300.0040558
300.0016879
300.0006818
300.0002674
300.0001019
300.0000378
300.0000136
300.0000048
300.0000016
300.0000005
300.0000002
300.0000001
300
300
300
300
300
300
300
300
300
300
300
460.2437952
460.5325534
461.4120103
463.1299482
465.3871143
465.7463019
446.2995407
364.505835
357.1958552
350.1653255
341.6231304
332.7286408
324.4777501
317.4729045
311.9369334
307.821012
304.9224865
302.9800793
301.7372725
300.9761462
300.5290956
300.2768604
300.1399618
300.0684037
300.0323416
300.0148026
300.0065627
300.0028201
300.0011753
300.0004754
300.0001867
300.0000712
300.0000264
300.0000095
300.0000033
300.0000011
300.0000004
300.0000001
300
300
300
300
300
300
300
300
300
300
300
300
450.2679362
450.1656879
450.357301
450.8039473
450.3822208
443.9176232
416.3433879
339.7793724
334.933457
330.8803008
325.86913
320.5384784
315.5014832
311.1581534
307.6802924
305.0657671
303.2072262
301.9517962
301.1430615
300.6448786
300.3507965
300.1841464
300.0933555
300.0457409
300.0216754
300.0099408
300.0044153
300.0019005
300.0007932
300.0003213
300.0001263
300.0000483
300.0000179
300.0000065
300.0000023
300.0000008
300.0000003
300.0000001
300
300
300
300
300
300
300
300
300
300
300
300
441.0986931
440.6190496
440.2279092
439.565339
436.0404238
424.2274014
392.2959632
324.4704913
321.0741187
318.6790629
315.7369039
312.5792524
309.5619116
306.9306438
304.8015601
303.1859551
302.0280056
301.2401727
300.7294661
300.4131439
300.2255212
300.1187533
300.0603715
300.029654
300.0140839
300.0064723
300.00288
300.0012417
300.0005191
300.0002105
300.0000829
300.0000317
300.0000118
300.0000043
300.0000015
300.0000005
300.0000002
300.0000001
300
300
300
300
300
300
300
300
300
300
300
300
432.7869457
431.9710088
430.7197464
428.3599237
421.9266344
406.4581221
373.7134421
314.947872
312.5976876
311.1480098
309.4028918
307.5413301
305.7588948
304.1956032
302.9218423
301.94844
301.2461074
300.7653344
300.451956
300.2568967
300.1406905
300.0743035
300.0378757
300.0186495
300.008877
300.0040876
300.0018222
300.000787
300.0003295
300.0001338
300.0000527
300.0000202
300.0000075
300.0000027
300.000001
300.0000003
300.0000001
300
300
300
300
300
300
300
300
300
300
300
300
300
425.2979845
423.8942765
421.4475396
417.2212865
408.269935
390.6785812
358.8903931
308.9853302
307.5158321
306.6007631
305.5425913
304.441427
303.3967583
302.4816734
301.7342598
301.160803
300.7451531
300.4593106
300.2721653
300.1551954
300.0852446
300.0451432
300.0230691
300.011385
300.0054306
300.0025055
300.0011189
300.000484
300.0002029
300.0000825
300.0000326
300.0000125
300.0000047
300.0000017
300.0000006
300.0000002
300.0000001
300
300
300
300
300
300
300
300
300
300
300
300
300
418.2988755
416.2343016
412.6844524
406.5267176
395.6241986
377.0436249
346.961802
305.5848963
304.523705
303.904277
303.2416299
302.5820443
301.9699169
301.4389641
301.0067812
300.6752079
300.4344748
300.2685013
300.1595188
300.0911963
300.050216
300.0266558
300.0136519
300.0067515
300.0032267
300.0014914
300.0006671
300.000289
300.0001214
300.0000494
300.0000195
300.0000075
300.0000028
300.000001
300.0000004
300.0000001
300
300
300
300
300
300
300
300
300
300
300
300
300
300
412.1775261
409.5226309
404.6289178
396.7106795
384.2462376
365.0806701
337.1184429
303.6199284
302.767759
302.3262614
301.8954345
301.4913638
301.1293515
300.8215595
300.5737278
300.3846199
300.2476259
300.1532056
300.0911576
300.0522032
300.0287966
300.0153137
300.0078571
300.0038925
300.0018634
300.0008627
300.0003865
300.0001677
300.0000705
300.0000288
300.0000114
300.0000044
300.0000016
300.0000006
300.0000002
300.0000001
300
300
300
300
300
300
300
300
300
300
300
300
300
300
406.7103978
403.4811653
397.3866115
387.983496
374.1908551
354.6327394
329.522208
302.4184553
301.7370555
301.4101724
301.1184661
300.8629472
300.644585
300.4645998
300.3225147
300.2154217
300.1384138
300.0855617
300.050905
300.0291649
300.0161011
300.0085713
300.0044029
300.002184
300.0010469
300.0004853
300.0002177
300.0000946
300.0000398
300.0000163
300.0000064
300.0000025
300.0000009
300.0000003
300.0000001
300
300
300
300
300
300
300
300
300
300
300
300
300
300
300
401.4656111
397.7941363
390.7670447
380.1782756
365.3251042
345.7924981
324.0693959
301.6854838
301.1259867
300.8771158
300.6722094
300.50474
300.3692792
300.2621014
300.1799277
300.1192367
300.0761966
300.0469311
300.027858
300.0159398
300.0087948
300.0046815
300.0024055
300.0011939
300.0005727
300.0002657
300.0001193
300.0000519
300.0000219
300.0000089
300.0000035
300.0000014
300.0000005
300.0000002
300.0000001
300
300
300
300
300
300
300
300
300
300
300
300
300
300
300
395.8717109
391.8768123
384.1036378
372.4784035
356.7182636
337.9505021
319.6102237
301.2083822
300.750377
300.5601429
300.4131857
300.3002135
300.2137601
300.1484639
300.1002104
300.065558
300.041491
300.0253738
300.0149844
300.0085428
300.0047019
300.0024989
300.0012829
300.0006365
300.0003053
300.0001417
300.0000636
300.0000277
300.0000117
300.0000048
300.0000019
300.0000007
300.0000003
300.0000001
300
300
300
300
300
300
300
300
300
300
300
300
300
300
300
300
389.0223422
384.7109581
376.1746656
363.4923694
347.1278884
330.4572477
315.4071139
300.8650802
300.5041125
300.3622397
300.257517
300.1807771
300.1248336
300.0844562
300.0557789
300.0358534
300.0223763
300.0135359
300.007927
300.0044908
300.0024602
300.0013031
300.0006674
300.0003306
300.0001584
300.0000735
300.000033
300.0000144
300.0000061
300.0000025
300.000001
300.0000004
300.0000001
300.0000001
300
300
300
300
300
300
300
300
300
300
300
300
300
300
300
300
379.1690205
374.4177994
364.9947075
351.5585662
336.2313296
322.7818905
311.2502437
300.5916699
300.3275999
300.228334
300.1573581
300.1071103
300.0718271
300.0473127
300.0305209
300.0192278
300.0118009
300.0070418
300.004079
300.002291
300.0012467
300.000657
300.0003352
300.0001656
300.0000792
300.0000367
300.0000165
300.0000072
300.000003
300.0000012
300.0000005
300.0000002
300.0000001
300
300
300
300
300
300
300
300
300
300
300
300
300
300
300
300
300
362.4074093
357.1636003
347.4041819
335.1080573
323.9313748
314.7937191
307.1680909
300.3553505
300.1871329
300.127345
300.0857681
300.0570454
300.0373885
300.0240942
300.0152313
300.0094233
300.005693
300.003352
300.0019203
300.0010689
300.0005775
300.0003026
300.0001537
300.0000757
300.0000361
300.0000167
300.0000075
300.0000033
300.0000014
300.0000006
300.0000002
300.0000001
300
300
300
300
300
300
300
300
300
300
300
300
300
300
300
300
300
300
330.2481694
325.8495153
319.086598
313.2940072
308.9242667
305.522981
302.6796258
300.1252311
300.0617321
300.041187
300.0273543
300.017962
300.0116251
300.0073997
300.0046231
300.0028293
300.0016927
300.0009883
300.0005621
300.000311
300.0001672
300.0000873
300.0000442
300.0000217
300.0000103
300.0000048
300.0000021
300.0000009
300.0000004
300.0000002
300.0000001
300
300
300
300
300
300
300
300
300
300
300
300
300
300
300
300
300
300
300
)
;

boundaryField
{
    lowerWall
    {
        type            fixedValue;
        value           uniform 300;
    }
    atmosphere
    {
        type            zeroGradient;
    }
    rightWall
    {
        type            empty;
    }
    leftWall
    {
        type            empty;
    }
    frontAndBack
    {
        type            fixedValue;
        value           uniform 300;
    }
}


// ************************************************************************* //
