/*--------------------------------*- C++ -*----------------------------------*\
  =========                 |
  \\      /  F ield         | OpenFOAM: The Open Source CFD Toolbox
   \\    /   O peration     | Website:  https://openfoam.org
    \\  /    A nd           | Version:  6
     \\/     M anipulation  |
\*---------------------------------------------------------------------------*/
FoamFile
{
    version     2.0;
    format      ascii;
    class       volVectorField;
    location    "0.16";
    object      U;
}
// * * * * * * * * * * * * * * * * * * * * * * * * * * * * * * * * * * * * * //

dimensions      [0 1 -1 0 0 0 0];

internalField   nonuniform List<vector> 
2500
(
(0 -1.474379021 -0.7203735513)
(0 -0.02298622771 -0.3734568515)
(0 0.1865147007 -0.1381054694)
(0 0.3741395671 -0.03341528205)
(0 0.3783825674 0.01752634196)
(0 0.2801523873 0.05832464879)
(0 0.04700729453 0.08384058058)
(0 -0.001360778271 0.004048112012)
(0 -9.973783888e-14 1.809813261e-17)
(0 -1.97391942e-13 -1.835612459e-15)
(0 -1.918654605e-13 -3.440787368e-15)
(0 -1.837555493e-13 -4.6660502e-15)
(0 -1.73613108e-13 -5.472644581e-15)
(0 -1.622356902e-13 -5.901719378e-15)
(0 -1.502983814e-13 -6.033449727e-15)
(0 -1.383096225e-13 -5.954053895e-15)
(0 -1.266173686e-13 -5.737678898e-15)
(0 -1.154393507e-13 -5.440375855e-15)
(0 -1.048984329e-13 -5.100982549e-15)
(0 -9.505342132e-14 -4.744756819e-15)
(0 -8.592223974e-14 -4.387359187e-15)
(0 -7.749781695e-14 -4.038152099e-15)
(0 -6.975830143e-14 -3.702572872e-15)
(0 -6.267334736e-14 -3.383690895e-15)
(0 -5.620788988e-14 -3.083163227e-15)
(0 -5.032440911e-14 -2.801792098e-15)
(0 -4.49843234e-14 -2.539839398e-15)
(0 -4.014889295e-14 -2.297202678e-15)
(0 -3.577984597e-14 -2.073517137e-15)
(0 -3.183983834e-14 -1.868220392e-15)
(0 -2.829280172e-14 -1.680599391e-15)
(0 -2.510420653e-14 -1.509828724e-15)
(0 -2.224125308e-14 -1.355004155e-15)
(0 -1.967299927e-14 -1.215172576e-15)
(0 -1.737043176e-14 -1.089358498e-15)
(0 -1.530648787e-14 -9.765869484e-16)
(0 -1.34560353e-14 -8.759026399e-16)
(0 -1.179581718e-14 -7.863855039e-16)
(0 -1.030436957e-14 -7.071628023e-16)
(0 -8.961917615e-15 -6.374181822e-16)
(0 -7.750256426e-15 -5.763981007e-16)
(0 -6.65262113e-15 -5.234160772e-16)
(0 -5.653550226e-15 -4.77855228e-16)
(0 -4.738745115e-15 -4.391695241e-16)
(0 -3.894927973e-15 -4.068842169e-16)
(0 -3.109699033e-15 -3.805959903e-16)
(0 -2.371392819e-15 -3.599738956e-16)
(0 -1.668928736e-15 -3.447641165e-16)
(0 -9.916376013e-16 -3.348095594e-16)
(0 -3.289856552e-16 -3.301311368e-16)
(0 -1.353176446 -1.228960661)
(0 -0.6743036136 -0.9101260665)
(0 -0.2068627421 -0.4210567955)
(0 0.08944218603 -0.08494748055)
(0 0.1323146695 0.07066785846)
(0 0.1107408753 0.1684752539)
(0 -0.00877393454 0.2071856339)
(0 -0.0005017814015 0.01038610027)
(0 -1.015804889e-13 4.321482471e-17)
(0 -2.008472067e-13 -5.743338645e-15)
(0 -1.946958982e-13 -1.070180491e-14)
(0 -1.857874065e-13 -1.441658137e-14)
(0 -1.748487772e-13 -1.679545229e-14)
(0 -1.627964953e-13 -1.800269938e-14)
(0 -1.50350716e-13 -1.831179623e-14)
(0 -1.380138517e-13 -1.799952536e-14)
(0 -1.261036906e-13 -1.7294378e-14)
(0 -1.148026543e-13 -1.63636455e-14)
(0 -1.042028138e-13 -1.532021972e-14)
(0 -9.433979796e-14 -1.423589666e-14)
(0 -8.521563502e-14 -1.315435985e-14)
(0 -7.681303064e-14 -1.210132308e-14)
(0 -6.910384023e-14 -1.109154001e-14)
(0 -6.205393771e-14 -1.013326216e-14)
(0 -5.562599108e-14 -9.230902399e-15)
(0 -4.978108528e-14 -8.386552371e-15)
(0 -4.447973397e-14 -7.600821387e-15)
(0 -3.968257069e-14 -6.873299896e-15)
(0 -3.535086369e-14 -6.202828609e-15)
(0 -3.14469206e-14 -5.587673388e-15)
(0 -2.793441005e-14 -5.02565672e-15)
(0 -2.477861129e-14 -4.514268815e-15)
(0 -2.194659693e-14 -4.050766999e-15)
(0 -1.940735361e-14 -3.632265426e-15)
(0 -1.713184613e-14 -3.255814733e-15)
(0 -1.509303202e-14 -2.918470807e-15)
(0 -1.326583385e-14 -2.617352247e-15)
(0 -1.162707735e-14 -2.349686722e-15)
(0 -1.015540224e-14 -2.112846951e-15)
(0 -8.831152914e-15 -1.904377443e-15)
(0 -7.636254321e-15 -1.722013308e-15)
(0 -6.554078258e-15 -1.563692562e-15)
(0 -5.569303672e-15 -1.427563294e-15)
(0 -4.667774104e-15 -1.311986984e-15)
(0 -3.836354439e-15 -1.21553923e-15)
(0 -3.062788712e-15 -1.137009137e-15)
(0 -2.335560945e-15 -1.07539905e-15)
(0 -1.6437644e-15 -1.029927728e-15)
(0 -9.770046216e-16 -1.000044552e-15)
(0 -3.243072327e-16 -9.854776136e-16)
(0 -1.220198453 -1.475181183)
(0 -0.9672550438 -1.39460329)
(0 -0.5030498249 -0.852076518)
(0 -0.1533891171 -0.2725950427)
(0 -0.0054059063 0.0764681796)
(0 -0.03399201242 0.2000136868)
(0 -0.03091974153 0.2246095843)
(0 8.324469105e-05 0.0007698872639)
(0 -1.054774801e-13 -7.582736638e-18)
(0 -2.081157758e-13 -1.043289163e-14)
(0 -2.005387032e-13 -1.920468152e-14)
(0 -1.898491967e-13 -2.550186348e-14)
(0 -1.77199226e-13 -2.928948215e-14)
(0 -1.637520341e-13 -3.100197783e-14)
(0 -1.502952074e-13 -3.121193992e-14)
(0 -1.372922043e-13 -3.043839163e-14)
(0 -1.249814887e-13 -2.907717068e-14)
(0 -1.134651924e-13 -2.74000739e-14)
(0 -1.02770684e-13 -2.558077755e-14)
(0 -9.288756145e-14 -2.372464504e-14)
(0 -8.378766615e-14 -2.189324164e-14)
(0 -7.543499711e-14 -2.012162002e-14)
(0 -6.779024052e-14 -1.842938844e-14)
(0 -6.081270975e-14 -1.682731381e-14)
(0 -5.446118009e-14 -1.532104501e-14)
(0 -4.86943281e-14 -1.391312269e-14)
(0 -4.347107092e-14 -1.26040392e-14)
(0 -3.875090017e-14 -1.139280821e-14)
(0 -3.449421946e-14 -1.027730081e-14)
(0 -3.066266645e-14 -9.25447949e-15)
(0 -2.721939715e-14 -8.320591107e-15)
(0 -2.412931681e-14 -7.471342088e-15)
(0 -2.135924969e-14 -6.702061586e-15)
(0 -1.8878047e-14 -6.007851362e-15)
(0 -1.665663714e-14 -5.383719402e-15)
(0 -1.466802539e-14 -4.824694976e-15)
(0 -1.288725121e-14 -4.325924206e-15)
(0 -1.129131189e-14 -3.882746499e-15)
(0 -9.859060288e-15 -3.490753288e-15)
(0 -8.571083972e-15 -3.145831112e-15)
(0 -7.409571546e-15 -2.844191424e-15)
(0 -6.358171117e-15 -2.582389564e-15)
(0 -5.401844647e-15 -2.357335254e-15)
(0 -4.526721051e-15 -2.166296758e-15)
(0 -3.719950127e-15 -2.006900621e-15)
(0 -2.969558853e-15 -1.877128622e-15)
(0 -2.26431141e-15 -1.775313175e-15)
(0 -1.593574238e-15 -1.700131306e-15)
(0 -9.471874865e-16 -1.650592669e-15)
(0 -3.144187167e-16 -1.625996046e-15)
(0 -1.034116724 -1.481132855)
(0 -1.119742343 -1.670756656)
(0 -0.7669167091 -1.249853932)
(0 -0.3934592616 -0.5808687649)
(0 -0.07515351956 0.01227455473)
(0 -0.08655585745 0.1708001953)
(0 -0.02572278514 0.1650575616)
(0 0.0002152683728 -0.009264983382)
(0 -1.119973749e-13 -6.625169593e-17)
(0 -2.200522276e-13 -1.674841686e-14)
(0 -2.097648701e-13 -3.017812334e-14)
(0 -1.958722072e-13 -3.909433053e-14)
(0 -1.803488915e-13 -4.385788583e-14)
(0 -1.647189531e-13 -4.550398369e-14)
(0 -1.497871298e-13 -4.509612598e-14)
(0 -1.358790824e-13 -4.346545847e-14)
(0 -1.230653728e-13 -4.11762291e-14)
(0 -1.113062612e-13 -3.857893374e-14)
(0 -1.00527385e-13 -3.587827144e-14)
(0 -9.065226204e-14 -3.31886681e-14)
(0 -8.161261e-14 -3.05722804e-14)
(0 -7.334917744e-14 -2.806242306e-14)
(0 -6.580953403e-14 -2.567694805e-14)
(0 -5.894559428e-14 -2.342540851e-14)
(0 -5.271179997e-14 -2.131267579e-14)
(0 -4.706407947e-14 -1.934067738e-14)
(0 -4.19594195e-14 -1.750921765e-14)
(0 -3.73558323e-14 -1.581639693e-14)
(0 -3.321253496e-14 -1.425888225e-14)
(0 -2.949021089e-14 -1.283213972e-14)
(0 -2.615127265e-14 -1.153066536e-14)
(0 -2.316008177e-14 -1.034821863e-14)
(0 -2.048310621e-14 -9.278050677e-15)
(0 -1.808901142e-14 -8.313117262e-15)
(0 -1.594868975e-14 -7.446268663e-15)
(0 -1.403523682e-14 -6.670411982e-15)
(0 -1.232388537e-14 -5.978644413e-15)
(0 -1.079190643e-14 -5.364358365e-15)
(0 -9.418486859e-15 -4.82132089e-15)
(0 -8.18459105e-15 -4.343730741e-15)
(0 -7.072812772e-15 -3.926256728e-15)
(0 -6.067222087e-15 -3.564061012e-15)
(0 -5.153210867e-15 -3.252810782e-15)
(0 -4.317339472e-15 -2.988681338e-15)
(0 -3.547186303e-15 -2.768353207e-15)
(0 -2.831201266e-15 -2.589005429e-15)
(0 -2.15856363e-15 -2.448306533e-15)
(0 -1.519043893e-15 -2.344403866e-15)
(0 -9.028693607e-16 -2.275910699e-15)
(0 -2.997106093e-16 -2.241891074e-15)
(0 -0.8512234021 -1.323004325)
(0 -1.189480962 -1.745566508)
(0 -1.008703547 -1.555191873)
(0 -0.6698976886 -0.9524373238)
(0 -0.2462260417 -0.2438007684)
(0 -0.0579965388 0.125872041)
(0 -0.03259429415 0.1054812642)
(0 0.0002867852085 -0.01812923577)
(0 -1.221988603e-13 -1.242277608e-16)
(0 -2.382674276e-13 -2.630406233e-14)
(0 -2.228846169e-13 -4.565709422e-14)
(0 -2.035289592e-13 -5.683607799e-14)
(0 -1.836088792e-13 -6.154358083e-14)
(0 -1.649902743e-13 -6.20610813e-14)
(0 -1.482566822e-13 -6.020443623e-14)
(0 -1.333723074e-13 -5.715214078e-14)
(0 -1.20094964e-13 -5.35840702e-14)
(0 -1.081672347e-13 -4.986160078e-14)
(0 -9.738041839e-14 -4.616495667e-14)
(0 -8.758157042e-14 -4.257960819e-14)
(0 -7.866142111e-14 -3.914485382e-14)
(0 -7.053966476e-14 -3.587887204e-14)
(0 -6.315322597e-14 -3.279058149e-14)
(0 -5.644843748e-14 -2.988469608e-14)
(0 -5.037644896e-14 -2.716356696e-14)
(0 -4.489086997e-14 -2.462768516e-14)
(0 -3.994679047e-14 -2.227574674e-14)
(0 -3.550056477e-14 -2.010466729e-14)
(0 -3.150996226e-14 -1.810967736e-14)
(0 -2.793444956e-14 -1.628451574e-14)
(0 -2.473547606e-14 -1.462169412e-14)
(0 -2.187670213e-14 -1.311279686e-14)
(0 -1.932414833e-14 -1.174878416e-14)
(0 -1.704626499e-14 -1.052027591e-14)
(0 -1.501393186e-14 -9.417802377e-15)
(0 -1.320040114e-14 -8.432015233e-15)
(0 -1.158119759e-14 -7.553857606e-15)
(0 -1.013398836e-14 -6.774695457e-15)
(0 -8.838432664e-15 -6.086414385e-15)
(0 -7.67601981e-15 -5.481486988e-15)
(0 -6.629901817e-15 -4.95301611e-15)
(0 -5.684725171e-15 -4.49475905e-15)
(0 -4.826464972e-15 -4.101137363e-15)
(0 -4.042263476e-15 -3.767236254e-15)
(0 -3.320274219e-15 -3.488796944e-15)
(0 -2.649512179e-15 -3.262204749e-15)
(0 -2.019709847e-15 -3.084474975e-15)
(0 -1.421178404e-15 -2.953238194e-15)
(0 -8.446746938e-16 -2.866726288e-15)
(0 -2.803990917e-16 -2.82376201e-15)
(0 -0.673609627 -1.048632831)
(0 -1.191089997 -1.627300939)
(0 -1.217944855 -1.724425342)
(0 -0.9710166045 -1.320787114)
(0 -0.49609816 -0.6106329283)
(0 -0.1040464198 -0.01491496945)
(0 -0.04051076296 0.07216131832)
(0 0.0003772527352 -0.03026343489)
(0 -1.382400649e-13 -2.004493225e-16)
(0 -2.656561151e-13 -4.266259808e-14)
(0 -2.402968857e-13 -6.929512909e-14)
(0 -2.117586938e-13 -8.104636449e-14)
(0 -1.855738948e-13 -8.342154726e-14)
(0 -1.633798085e-13 -8.099547383e-14)
(0 -1.448781892e-13 -7.651087141e-14)
(0 -1.292587164e-13 -7.135618299e-14)
(0 -1.157748328e-13 -6.614721329e-14)
(0 -1.038871476e-13 -6.111891566e-14)
(0 -9.324539238e-14 -5.63405771e-14)
(0 -8.363215919e-14 -5.182005977e-14)
(0 -7.491187385e-14 -4.754870075e-14)
(0 -6.699490511e-14 -4.35176504e-14)
(0 -5.981535806e-14 -3.972182095e-14)
(0 -5.331857975e-14 -3.615923583e-14)
(0 -4.745478905e-14 -3.282921882e-14)
(0 -4.217625925e-14 -2.973075735e-14)
(0 -3.743640163e-14 -2.686142407e-14)
(0 -3.318976292e-14 -2.421685431e-14)
(0 -2.939238341e-14 -2.179064892e-14)
(0 -2.600222765e-14 -1.957455494e-14)
(0 -2.297955378e-14 -1.755880014e-14)
(0 -2.028717181e-14 -1.573249068e-14)
(0 -1.789058525e-14 -1.408401203e-14)
(0 -1.575802964e-14 -1.260139756e-14)
(0 -1.386042907e-14 -1.127264654e-14)
(0 -1.217129205e-14 -1.00859851e-14)
(0 -1.06665656e-14 -9.030070934e-15)
(0 -9.324463208e-15 -8.094146713e-15)
(0 -8.12527839e-15 -7.268149193e-15)
(0 -7.051192775e-15 -6.54278155e-15)
(0 -6.086084835e-15 -5.909556426e-15)
(0 -5.215343341e-15 -5.36081644e-15)
(0 -4.42568807e-15 -4.8897381e-15)
(0 -3.704999052e-15 -4.490324131e-15)
(0 -3.042154798e-15 -4.157388363e-15)
(0 -2.426879297e-15 -3.886536482e-15)
(0 -1.849597075e-15 -3.674145289e-15)
(0 -1.301295206e-15 -3.517342525e-15)
(0 -7.73393177e-16 -3.413989099e-15)
(0 -2.567463311e-16 -3.362665694e-15)
(0 -0.4653325178 -0.7031465114)
(0 -1.079162448 -1.335332711)
(0 -1.330015534 -1.727724283)
(0 -1.246442884 -1.637895016)
(0 -0.8061051397 -1.075120656)
(0 -0.2726295156 -0.3435206816)
(0 -0.03163840483 -0.001872742409)
(0 0.0003827878855 -0.04352599724)
(0 -1.647870986e-13 -2.756740493e-16)
(0 -3.074791059e-13 -7.478106886e-14)
(0 -2.612683833e-13 -1.077919006e-13)
(0 -2.176553774e-13 -1.146371225e-13)
(0 -1.835579885e-13 -1.101097992e-13)
(0 -1.580795984e-13 -1.01995115e-13)
(0 -1.386173914e-13 -9.349124094e-14)
(0 -1.230086493e-13 -8.56164095e-14)
(0 -1.098576967e-13 -7.853051519e-14)
(0 -9.836059854e-14 -7.212658156e-14)
(0 -8.80815625e-14 -6.625846136e-14)
(0 -7.878969407e-14 -6.081135574e-14)
(0 -7.035901175e-14 -5.57122215e-14)
(0 -6.271278496e-14 -5.092119321e-14)
(0 -5.57948114e-14 -4.641981026e-14)
(0 -4.955583535e-14 -4.220120965e-14)
(0 -4.394797048e-14 -3.826332262e-14)
(0 -3.892307521e-14 -3.460471136e-14)
(0 -3.443288743e-14 -3.122234833e-14)
(0 -3.042978962e-14 -2.811068648e-14)
(0 -2.686766289e-14 -2.52615169e-14)
(0 -2.370260078e-14 -2.26642608e-14)
(0 -2.089341179e-14 -2.030646466e-14)
(0 -1.840191401e-14 -1.817435566e-14)
(0 -1.619305521e-14 -1.62533761e-14)
(0 -1.42348995e-14 -1.452865484e-14)
(0 -1.249851941e-14 -1.298539919e-14)
(0 -1.095782553e-14 -1.1609205e-14)
(0 -9.589359202e-15 -1.038629106e-14)
(0 -8.372066623e-15 -9.303667651e-15)
(0 -7.287067501e-15 -8.34925029e-15)
(0 -6.317427044e-15 -7.511929653e-15)
(0 -5.447936707e-15 -6.781607639e-15)
(0 -4.664906845e-15 -6.149208251e-15)
(0 -3.955972663e-15 -5.606670597e-15)
(0 -3.309913739e-15 -5.146930025e-15)
(0 -2.716486569e-15 -4.7638922e-15)
(0 -2.166269105e-15 -4.452403915e-15)
(0 -1.65051589e-15 -4.208223629e-15)
(0 -1.161022213e-15 -4.02799402e-15)
(0 -6.899978629e-16 -3.909218412e-15)
(0 -2.290756871e-16 -3.850242571e-15)
(0 -0.202953596 -0.3422622329)
(0 -0.7936776032 -0.9043879438)
(0 -1.238540373 -1.535004964)
(0 -1.381762284 -1.8248971)
(0 -1.103160274 -1.578180621)
(0 -0.5228135597 -0.8585749131)
(0 -0.0139888662 -0.1367834776)
(0 0.001172194881 -0.04464561202)
(0 -2.129561901e-13 -1.646942757e-15)
(0 -3.733474553e-13 -1.48113731e-13)
(0 -2.801529394e-13 -1.724555301e-13)
(0 -2.140765924e-13 -1.596347891e-13)
(0 -1.729318873e-13 -1.404081663e-13)
(0 -1.467612502e-13 -1.233948213e-13)
(0 -1.284994837e-13 -1.098468712e-13)
(0 -1.142979907e-13 -9.908904759e-14)
(0 -1.022850049e-13 -9.023206272e-14)
(0 -9.161509382e-14 -8.259828396e-14)
(0 -8.193016657e-14 -7.575512638e-14)
(0 -7.308591933e-14 -6.945451698e-14)
(0 -6.502171131e-14 -6.356753088e-14)
(0 -5.770249387e-14 -5.803503374e-14)
(0 -5.10953745e-14 -5.283499401e-14)
(0 -4.516209211e-14 -4.796246728e-14)
(0 -3.985829076e-14 -4.341815905e-14)
(0 -3.513528495e-14 -3.920243012e-14)
(0 -3.094237676e-14 -3.531258506e-14)
(0 -2.722893149e-14 -3.174203857e-14)
(0 -2.394595773e-14 -2.848048107e-14)
(0 -2.104717541e-14 -2.551451363e-14)
(0 -1.848964863e-14 -2.282844627e-14)
(0 -1.623408325e-14 -2.04050931e-14)
(0 -1.424488443e-14 -1.82264818e-14)
(0 -1.249005274e-14 -1.627444491e-14)
(0 -1.094097923e-14 -1.453108761e-14)
(0 -9.572183914e-15 -1.297914103e-14)
(0 -8.361028251e-15 -1.160221648e-14)
(0 -7.287422438e-15 -1.038497802e-14)
(0 -6.333540391e-15 -9.313249962e-15)
(0 -5.483550125e-15 -8.374074377e-15)
(0 -4.723363433e-15 -7.555731507e-15)
(0 -4.040406298e-15 -6.847733697e-15)
(0 -3.423409845e-15 -6.240801503e-15)
(0 -2.862220656e-15 -5.726828804e-15)
(0 -2.347628687e-15 -5.298842263e-15)
(0 -1.871210726e-15 -4.950959239e-15)
(0 -1.42518718e-15 -4.678347287e-15)
(0 -1.00228999e-15 -4.477187586e-15)
(0 -5.956417282e-16 -4.344644084e-15)
(0 -1.977704899e-16 -4.278839621e-15)
(0 0.06622103947 -0.04989023326)
(0 -0.342035161 -0.411220003)
(0 -0.8747862569 -1.142329725)
(0 -1.246040225 -1.777553623)
(0 -1.244188084 -1.959816653)
(0 -0.7985683198 -1.474445981)
(0 -0.1346462134 -0.5195896018)
(0 0.004439678524 -0.04702948349)
(0 -3.114379913e-13 -2.763903884e-13)
(0 -4.785011772e-13 -3.430472327e-13)
(0 -2.727894414e-13 -2.745454167e-13)
(0 -1.856080136e-13 -2.111484631e-13)
(0 -1.473180207e-13 -1.685301997e-13)
(0 -1.275183033e-13 -1.413388934e-13)
(0 -1.143116176e-13 -1.23413517e-13)
(0 -1.033938408e-13 -1.106598253e-13)
(0 -9.336693304e-14 -1.007091971e-13)
(0 -8.388366219e-14 -9.227845179e-14)
(0 -7.493779551e-14 -8.470865219e-14)
(0 -6.660209857e-14 -7.768370851e-14)
(0 -5.89395285e-14 -7.106816723e-14)
(0 -5.198024809e-14 -6.481633229e-14)
(0 -4.572224494e-14 -5.892263708e-14)
(0 -4.01390004e-14 -5.339550854e-14)
(0 -3.518793333e-14 -4.82444318e-14)
(0 -3.081750122e-14 -4.347428476e-14)
(0 -2.697249588e-14 -3.908354209e-14)
(0 -2.359768564e-14 -3.506441737e-14)
(0 -2.064013794e-14 -3.140386692e-14)
(0 -1.805056598e-14 -2.80848741e-14)
(0 -1.578399127e-14 -2.50877179e-14)
(0 -1.379994954e-14 -2.239108992e-14)
(0 -1.206240701e-14 -1.9973012e-14)
(0 -1.053950532e-14 -1.781155254e-14)
(0 -9.20321553e-15 -1.588536123e-14)
(0 -8.028954391e-15 -1.417405007e-14)
(0 -6.995196193e-15 -1.265845031e-14)
(0 -6.083100107e-15 -1.132077222e-14)
(0 -5.276163858e-15 -1.014469129e-14)
(0 -4.559908588e-15 -9.115380547e-15)
(0 -3.921596026e-15 -8.219504592e-15)
(0 -3.349976841e-15 -7.445187976e-15)
(0 -2.835067771e-15 -6.781967563e-15)
(0 -2.367954499e-15 -6.220736279e-15)
(0 -1.940617004e-15 -5.753683855e-15)
(0 -1.54577413e-15 -5.374238713e-15)
(0 -1.176744237e-15 -5.07701406e-15)
(0 -8.273190108e-16 -4.857760431e-15)
(0 -4.916498972e-16 -4.713326271e-15)
(0 -1.632712232e-16 -4.641627651e-15)
(0 0.2241532131 0.05054292123)
(0 0.1294809382 0.001096873323)
(0 -0.3097120618 -0.6151629066)
(0 -0.8113351268 -1.440265317)
(0 -1.109448648 -2.047649888)
(0 -0.9610992141 -1.984867006)
(0 -0.3927376883 -1.085694866)
(0 0.0043289086 -0.1019138239)
(0 -2.796229665e-13 -1.432161648e-12)
(0 -3.717917145e-13 -6.739816994e-13)
(0 -1.482541698e-13 -3.721610268e-13)
(0 -1.080613754e-13 -2.419921735e-13)
(0 -1.031223176e-13 -1.812303968e-13)
(0 -1.016445674e-13 -1.500070427e-13)
(0 -9.782041568e-14 -1.317999657e-13)
(0 -9.15936708e-14 -1.194221547e-13)
(0 -8.390363134e-14 -1.096633439e-13)
(0 -7.561454891e-14 -1.010959666e-13)
(0 -6.73354233e-14 -9.3116422e-14)
(0 -5.944543438e-14 -8.550305034e-14)
(0 -5.21543351e-14 -7.820489735e-14)
(0 -4.555696371e-14 -7.123942158e-14)
(0 -3.967455074e-14 -6.464370844e-14)
(0 -3.448388683e-14 -5.845252123e-14)
(0 -2.993706698e-14 -5.268980702e-14)
(0 -2.597439524e-14 -4.736676649e-14)
(0 -2.253250937e-14 -4.24829076e-14)
(0 -1.954925632e-14 -3.802824194e-14)
(0 -1.696641445e-14 -3.398570882e-14)
(0 -1.47310264e-14 -3.033340607e-14)
(0 -1.279586446e-14 -2.704646487e-14)
(0 -1.111937734e-14 -2.409853667e-14)
(0 -9.665347055e-15 -2.146292105e-14)
(0 -8.402401968e-15 -1.911338747e-14)
(0 -7.303476758e-15 -1.702474883e-14)
(0 -6.345273e-15 -1.517324106e-14)
(0 -5.507750399e-15 -1.353675542e-14)
(0 -4.773663414e-15 -1.209496202e-14)
(0 -4.128148721e-15 -1.082935524e-14)
(0 -3.558363428e-15 -9.723244898e-15)
(0 -3.053170862e-15 -8.761711545e-15)
(0 -2.602869269e-15 -7.931539541e-15)
(0 -2.198958148e-15 -7.221138274e-15)
(0 -1.833936948e-15 -6.620458959e-15)
(0 -1.501131122e-15 -6.120912498e-15)
(0 -1.194540931e-15 -5.715292261e-15)
(0 -9.087088975e-16 -5.397704562e-15)
(0 -6.386022008e-16 -5.163508706e-15)
(0 -3.79508948e-16 -5.009267917e-15)
(0 -1.260718695e-16 -4.932711975e-15)
(0 0.311898011 0.03839399152)
(0 0.3623973926 0.1145715812)
(0 0.2177751542 -0.1388210839)
(0 -0.2331334821 -0.8874479775)
(0 -0.7369961715 -1.781211804)
(0 -0.9441471505 -2.234399099)
(0 -0.5953191723 -1.643973674)
(0 0.0007162325227 -0.2972638285)
(0 4.468162596e-13 -1.3176515e-12)
(0 5.809350427e-13 -5.513557368e-13)
(0 1.592000845e-13 -2.972338935e-13)
(0 5.322616474e-15 -2.031181067e-13)
(0 -5.533288983e-14 -1.642756834e-13)
(0 -7.808787226e-14 -1.456122857e-13)
(0 -8.372672963e-14 -1.343372716e-13)
(0 -8.125721899e-14 -1.255565697e-13)
(0 -7.504074496e-14 -1.174219362e-13)
(0 -6.733674028e-14 -1.093237378e-13)
(0 -5.934487928e-14 -1.011571646e-13)
(0 -5.169057392e-14 -9.30068309e-14)
(0 -4.467589975e-14 -8.500885177e-14)
(0 -3.841905918e-14 -7.729275962e-14)
(0 -3.293534459e-14 -6.996030783e-14)
(0 -2.818509897e-14 -6.308112458e-14)
(0 -2.410217858e-14 -5.6695567e-14)
(0 -2.06106018e-14 -5.082011406e-14)
(0 -1.763397133e-14 -4.54531153e-14)
(0 -1.510048685e-14 -4.057995824e-14)
(0 -1.294530207e-14 -3.617733527e-14)
(0 -1.111132203e-14 -3.2216584e-14)
(0 -9.549121869e-15 -2.866620074e-14)
(0 -8.216405712e-15 -2.549366863e-14)
(0 -7.077257811e-15 -2.2666743e-14)
(0 -6.101333104e-15 -2.01543205e-14)
(0 -5.263069125e-15 -1.792699747e-14)
(0 -4.540960982e-15 -1.595740123e-14)
(0 -3.916917152e-15 -1.422035937e-14)
(0 -3.375699923e-15 -1.269295634e-14)
(0 -2.904446736e-15 -1.13545141e-14)
(0 -2.492264896e-15 -1.018652396e-14)
(0 -2.129890669e-15 -9.172549243e-15)
(0 -1.809403569e-15 -8.298112879e-15)
(0 -1.523987189e-15 -7.55057995e-15)
(0 -1.267728724e-15 -6.919042089e-15)
(0 -1.035450306e-15 -6.394208562e-15)
(0 -8.225661937e-16 -5.968307212e-15)
(0 -6.249606819e-16 -5.634997403e-15)
(0 -4.388823655e-16 -5.389296281e-15)
(0 -2.608531664e-16 -5.227519202e-15)
(0 -8.671528206e-17 -5.147234793e-15)
(0 0.3538429625 0.010755448)
(0 0.3951526934 0.05337073595)
(0 0.4269910032 0.02239180617)
(0 0.2179108795 -0.3574480172)
(0 -0.296845578 -1.253624545)
(0 -0.8184123511 -2.17471068)
(0 -0.7277247613 -2.076997939)
(0 -0.0005512778836 -0.6409739106)
(0 4.861498194e-13 5.767269608e-13)
(0 6.473341499e-13 8.05543485e-14)
(0 1.999834604e-13 -6.106672768e-14)
(0 2.48968347e-14 -1.086175103e-13)
(0 -4.561649659e-14 -1.270290629e-13)
(0 -7.170615572e-14 -1.33789253e-13)
(0 -7.776469969e-14 -1.34364901e-13)
(0 -7.467833536e-14 -1.310386735e-13)
(0 -6.767079944e-14 -1.251415489e-13)
(0 -5.934977735e-14 -1.176189274e-13)
(0 -5.101851641e-14 -1.091814058e-13)
(0 -4.329712152e-14 -1.003582873e-13)
(0 -3.644026382e-14 -9.153105672e-14)
(0 -3.050841978e-14 -8.296261711e-14)
(0 -2.54629157e-14 -7.482378453e-14)
(0 -2.1219146e-14 -6.721622131e-14)
(0 -1.767605647e-14 -6.019131277e-14)
(0 -1.473194355e-14 -5.376507215e-14)
(0 -1.229235354e-14 -4.792952472e-14)
(0 -1.027347629e-14 -4.266116719e-14)
(0 -8.603040214e-15 -3.792710425e-14)
(0 -7.219891866e-15 -3.368939902e-14)
(0 -6.072949095e-15 -2.990808414e-14)
(0 -5.119919611e-15 -2.65431885e-14)
(0 -4.325998924e-15 -2.355605343e-14)
(0 -3.662656437e-15 -2.091014403e-14)
(0 -3.106557483e-15 -1.857150845e-14)
(0 -2.638634898e-15 -1.650899587e-14)
(0 -2.24330551e-15 -1.469431345e-14)
(0 -1.907818145e-15 -1.310197918e-14)
(0 -1.621716343e-15 -1.170921067e-14)
(0 -1.376398569e-15 -1.049577797e-14)
(0 -1.164759779e-15 -9.443839542e-15)
(0 -9.808999761e-16 -8.537774319e-15)
(0 -8.198873581e-16 -7.764018639e-15)
(0 -6.775655603e-16 -7.110913462e-15)
(0 -5.503962448e-16 -6.568565456e-15)
(0 -4.353297723e-16 -6.128723998e-15)
(0 -3.296979662e-16 -5.784675226e-15)
(0 -2.311240006e-16 -5.531153704e-15)
(0 -1.374474604e-16 -5.364271861e-15)
(0 -4.578746017e-17 -5.281467219e-15)
(0 0.3645592716 0.001987424802)
(0 0.367389605 0.0009690429472)
(0 0.3997037255 0.004668317865)
(0 0.3499874776 -0.1009854018)
(0 0.0449195096 -0.6759271983)
(0 -0.6768078663 -1.87779185)
(0 -0.8504182428 -2.378008485)
(0 -0.002572190093 -1.056174417)
(0 -5.124415416e-14 1.019649985e-12)
(0 -5.939482863e-14 3.562107691e-13)
(0 -2.997177436e-14 8.004991451e-14)
(0 -6.063971873e-14 -4.34931095e-14)
(0 -8.050463254e-14 -1.014935901e-13)
(0 -8.542371039e-14 -1.281665058e-13)
(0 -8.097615012e-14 -1.382990771e-13)
(0 -7.203386689e-14 -1.390935602e-13)
(0 -6.162099886e-14 -1.344878116e-13)
(0 -5.137659712e-14 -1.26829913e-13)
(0 -4.208423919e-14 -1.175919769e-13)
(0 -3.404022488e-14 -1.077144457e-13)
(0 -2.728022952e-14 -9.779492915e-14)
(0 -2.1711787e-14 -8.820321215e-14)
(0 -1.718894879e-14 -7.915624249e-14)
(0 -1.355262721e-14 -7.076883972e-14)
(0 -1.065102942e-14 -6.30885102e-14)
(0 -8.348813749e-15 -5.611941446e-14)
(0 -6.530066367e-15 -4.983879102e-14)
(0 -5.098066383e-15 -4.420810664e-14)
(0 -3.973533911e-15 -3.91805256e-14)
(0 -3.092301922e-15 -3.47058237e-14)
(0 -2.40291135e-15 -3.073354172e-14)
(0 -1.864375003e-15 -2.721493722e-14)
(0 -1.444213339e-15 -2.41041253e-14)
(0 -1.116788128e-15 -2.13586798e-14)
(0 -8.619209599e-16 -1.893988222e-14)
(0 -6.637659818e-16 -1.681274637e-14)
(0 -5.099004633e-16 -1.494590599e-14)
(0 -3.905971403e-16 -1.33114236e-14)
(0 -2.982455306e-16 -1.188455959e-14)
(0 -2.268937689e-16 -1.064352674e-14)
(0 -1.718870131e-16 -9.569246465e-15)
(0 -1.295826663e-16 -8.645116815e-15)
(0 -9.712633242e-17 -7.85679812e-15)
(0 -7.22755408e-17 -7.192019573e-15)
(0 -5.326084171e-17 -6.640408242e-15)
(0 -3.867596378e-17 -6.193340975e-15)
(0 -2.739038811e-17 -5.843819031e-15)
(0 -1.847899994e-17 -5.586364941e-15)
(0 -1.116668142e-17 -5.416940985e-15)
(0 -3.91064025e-18 -5.332888678e-15)
(0 0.3653229744 0.002875616368)
(0 0.3522830312 6.931622735e-05)
(0 0.3454840875 -0.001681036706)
(0 0.3086553645 -0.002101331121)
(0 0.2368576294 -0.2218815708)
(0 -0.5351937447 -1.436891092)
(0 -0.9772252851 -2.540209176)
(0 -0.009387691108 -1.58004066)
(0 -1.807184333e-13 4.282730549e-13)
(0 -2.964253755e-13 2.427889822e-13)
(0 -1.997204183e-13 6.77911256e-14)
(0 -1.566466699e-13 -4.417783889e-14)
(0 -1.302898929e-13 -1.07383356e-13)
(0 -1.085116427e-13 -1.391221329e-13)
(0 -8.869175406e-14 -1.515876695e-13)
(0 -7.086706985e-14 -1.525566164e-13)
(0 -5.540715223e-14 -1.468905937e-13)
(0 -4.245394268e-14 -1.376235872e-13)
(0 -3.190304909e-14 -1.266438528e-13)
(0 -2.350007377e-14 -1.151137254e-13)
(0 -1.692903032e-14 -1.037317644e-13)
(0 -1.186973312e-14 -9.289956926e-14)
(0 -8.028543264e-15 -8.282946929e-14)
(0 -5.151413706e-15 -7.361460099e-14)
(0 -3.026631206e-15 -6.527460805e-14)
(0 -1.482224364e-15 -5.778536298e-14)
(0 -3.810457277e-16 -5.109815953e-14)
(0 3.847891263e-16 -4.515195952e-14)
(0 8.992427318e-16 -3.988106886e-14)
(0 1.227092015e-15 -3.521981976e-14)
(0 1.417937378e-15 -3.110530747e-14)
(0 1.50949681e-15 -2.747887604e-14)
(0 1.530258495e-15 -2.428681219e-14)
(0 1.501586641e-15 -2.148054901e-14)
(0 1.439375948e-15 -1.901657618e-14)
(0 1.355341334e-15 -1.685618431e-14)
(0 1.258017262e-15 -1.496512459e-14)
(0 1.153528252e-15 -1.331323494e-14)
(0 1.046180518e-15 -1.187406388e-14)
(0 9.38914557e-16 -1.062451061e-14)
(0 8.336501459e-16 -9.544491527e-15)
(0 7.315483692e-16 -8.616638088e-15)
(0 6.332098838e-16 -7.826028042e-15)
(0 5.388243177e-16 -7.159949799e-15)
(0 4.482823533e-16 -6.607698921e-15)
(0 3.612594388e-16 -6.160405102e-15)
(0 2.772780683e-16 -5.810887861e-15)
(0 1.957540455e-16 -5.553539223e-15)
(0 1.16028802e-16 -5.384231841e-15)
(0 3.826484644e-17 -5.300251252e-15)
(0 0.3712822375 0.006757019332)
(0 0.3575884615 0.01860648939)
(0 0.3364027274 0.02539227219)
(0 0.2758277496 0.06094767486)
(0 0.3459985024 0.08672989421)
(0 -0.3246535555 -0.904338592)
(0 -1.02850064 -2.540982786)
(0 -0.01973489672 -2.224538646)
(0 -2.422295569e-13 2.290464949e-13)
(0 -4.262143537e-13 1.13991239e-13)
(0 -3.169385955e-13 -7.194205007e-15)
(0 -2.358142004e-13 -9.361068485e-14)
(0 -1.754489265e-13 -1.447654655e-13)
(0 -1.296280238e-13 -1.693731367e-13)
(0 -9.441063369e-14 -1.763874438e-13)
(0 -6.73367911e-14 -1.726637826e-13)
(0 -4.668796961e-14 -1.629000859e-13)
(0 -3.112985623e-14 -1.501336158e-13)
(0 -1.957437744e-14 -1.362484381e-13)
(0 -1.112813649e-14 -1.223663217e-13)
(0 -5.066073356e-15 -1.091197788e-13)
(0 -8.094918696e-16 -9.683442611e-14)
(0 2.096019475e-15 -8.56478311e-14)
(0 4.002234037e-15 -7.558570518e-14)
(0 5.178208587e-15 -6.661008043e-14)
(0 5.827634772e-15 -5.864933119e-14)
(0 6.103337095e-15 -5.161654756e-14)
(0 6.119024285e-15 -4.542050269e-14)
(0 5.95860585e-15 -3.997195654e-14)
(0 5.683459463e-15 -3.518705762e-14)
(0 5.338032375e-15 -3.098896754e-14)
(0 4.95412028e-15 -2.730842144e-14)
(0 4.55411369e-15 -2.408367307e-14)
(0 4.153447885e-15 -2.126010381e-14)
(0 3.762443742e-15 -1.878966684e-14)
(0 3.387685608e-15 -1.663026964e-14)
(0 3.033048906e-15 -1.474515456e-14)
(0 2.70046357e-15 -1.310231094e-14)
(0 2.390478792e-15 -1.167393529e-14)
(0 2.10267858e-15 -1.043594676e-14)
(0 1.835985512e-15 -9.367558738e-15)
(0 1.588880819e-15 -8.450904946e-15)
(0 1.359561957e-15 -7.670716159e-15)
(0 1.146053581e-15 -7.014043523e-15)
(0 9.462838552e-16 -6.470024126e-15)
(0 7.581350959e-16 -6.029684823e-15)
(0 5.794754902e-16 -5.68578072e-15)
(0 4.081770205e-16 -5.432665222e-15)
(0 2.421212902e-16 -5.266189095e-15)
(0 8.006994847e-17 -5.183626502e-15)
(0 0.3893327469 0.01136783055)
(0 0.3785074854 0.03588729579)
(0 0.3652844629 0.06274910188)
(0 0.3020648261 0.09784371102)
(0 0.4047780886 0.2457787653)
(0 -0.003401927129 -0.3204473249)
(0 -0.9519792751 -2.301860241)
(0 -0.02975152571 -2.921696288)
(0 -3.044148748e-13 1.064647415e-13)
(0 -5.418527456e-13 -1.744245513e-14)
(0 -4.073223421e-13 -1.167934535e-13)
(0 -2.942179303e-13 -1.78258927e-13)
(0 -2.060523447e-13 -2.086934352e-13)
(0 -1.401336211e-13 -2.17227998e-13)
(0 -9.198239995e-14 -2.119359816e-13)
(0 -5.737971192e-14 -1.988192921e-13)
(0 -3.287698552e-14 -1.819181192e-13)
(0 -1.58022949e-14 -1.637661638e-13)
(0 -4.135754965e-15 -1.458524078e-13)
(0 3.628585541e-15 -1.289848783e-13)
(0 8.602865284e-15 -1.135475424e-13)
(0 1.160221458e-14 -9.967108384e-14)
(0 1.322017767e-14 -8.734204158e-14)
(0 1.388633697e-14 -7.647047591e-14)
(0 1.390974278e-14 -6.693075323e-14)
(0 1.35113085e-14 -5.858535497e-14)
(0 1.284778277e-14 -5.129818655e-14)
(0 1.202938015e-14 -4.494151991e-14)
(0 1.11326878e-14 -3.939916168e-14)
(0 1.021008101e-14 -3.456744858e-14)
(0 9.296573564e-15 -3.035504588e-14)
(0 8.414791283e-15 -2.668213333e-14)
(0 7.578576125e-15 -2.347932188e-14)
(0 6.795592868e-15 -2.068649645e-14)
(0 6.069210117e-15 -1.8251691e-14)
(0 5.399853616e-15 -1.613004905e-14)
(0 4.785975965e-15 -1.4282892e-14)
(0 4.224747521e-15 -1.267690031e-14)
(0 3.712544697e-15 -1.128340311e-14)
(0 3.245291114e-15 -1.007776776e-14)
(0 2.818691959e-15 -9.038878718e-15)
(0 2.428390949e-15 -8.148695182e-15)
(0 2.070071306e-15 -7.391877683e-15)
(0 1.73951635e-15 -6.75547455e-15)
(0 1.432641053e-15 -6.228660589e-15)
(0 1.145502845e-15 -5.802521347e-15)
(0 8.742976694e-16 -5.469877479e-15)
(0 6.153456701e-16 -5.225144727e-15)
(0 3.650675225e-16 -5.064225936e-15)
(0 1.208274401e-16 -4.984432378e-15)