/*--------------------------------*- C++ -*----------------------------------*\
  =========                 |
  \\      /  F ield         | OpenFOAM: The Open Source CFD Toolbox
   \\    /   O peration     | Website:  https://openfoam.org
    \\  /    A nd           | Version:  6
     \\/     M anipulation  |
\*---------------------------------------------------------------------------*/
FoamFile
{
    version     2.0;
    format      ascii;
    class       volScalarField;
    location    "0.16";
    object      ViscousDissipation;
}
// * * * * * * * * * * * * * * * * * * * * * * * * * * * * * * * * * * * * * //

dimensions      [1 -1 -3 0 0 0 0];

internalField   nonuniform List<scalar> 
2500
(
30.86879901
22.60942254
2.424991787
0.3072243468
0.1448184985
0.8528130519
0.8720792921
0.03009007206
0.02746763007
2.337837249e-23
1.092015743e-24
1.917504676e-24
2.616008063e-24
3.035538573e-24
3.172255753e-24
3.091296624e-24
2.873085484e-24
2.585142817e-24
2.274278452e-24
1.968911819e-24
1.684319698e-24
1.427471799e-24
1.200505928e-24
1.002927627e-24
8.32899876e-25
6.879651964e-25
5.654412405e-25
4.626373364e-25
3.769744904e-25
3.060522101e-25
2.476841825e-25
1.999141262e-25
1.610181122e-25
1.294973927e-25
1.040647241e-25
8.362656764e-26
6.72630923e-26
5.420748603e-26
4.382569188e-26
3.55973391e-26
2.909834704e-26
2.398544961e-26
1.998271788e-26
1.687004186e-26
1.447346193e-26
1.265721007e-26
1.131733749e-26
1.03769231e-26
9.783366826e-27
1.011516565e-26
6.135179658
12.17665052
5.680601608
0.8943015489
0.06278803201
0.2846759641
0.307759535
0.1090359925
0.1487201836
2.448294645e-23
1.699659663e-24
2.452018523e-24
3.049636936e-24
3.359693528e-24
3.398236993e-24
3.240517676e-24
2.968066963e-24
2.644564345e-24
2.311591735e-24
1.992911875e-24
1.70037153e-24
1.438694162e-24
1.208664343e-24
1.009021971e-24
8.37516123e-25
6.914709769e-25
5.680880255e-25
4.64611173e-25
3.784203901e-25
3.070859956e-25
2.483988068e-25
2.003837278e-25
1.61301168e-25
1.296394483e-25
1.041008204e-25
8.35833672e-26
6.71606931e-26
5.40609238e-26
4.364615307e-26
3.539311789e-26
2.887558605e-26
2.374870354e-26
1.973537533e-26
1.661463367e-26
1.421187239e-26
1.239077986e-26
1.104676055e-26
1.010148541e-26
9.505775152e-27
1.46920539e-26
1.069700126
5.716238744
7.775649642
3.066579893
0.2758214707
0.00924431953
0.134202453
0.1354715172
0.0009975862965
2.69856804e-23
3.169304652e-24
3.687343152e-24
4.007470574e-24
4.047342575e-24
3.861289274e-24
3.537592416e-24
3.152917495e-24
2.758401142e-24
2.382513374e-24
2.038536902e-24
1.731091064e-24
1.460386083e-24
1.224588939e-24
1.02100562e-24
8.466314324e-25
6.984016187e-25
5.733129939e-25
4.684931905e-25
3.812470484e-25
3.090893593e-25
2.497660467e-25
2.012643603e-25
1.618130586e-25
1.298742271e-25
1.0412879e-25
8.345783625e-26
6.692167717e-26
5.373820999e-26
4.326176876e-26
3.496327472e-26
2.841218129e-26
2.326046104e-26
1.922870046e-26
1.609424558e-26
1.368126551e-26
1.185255944e-26
1.050291576e-26
9.553824968e-27
8.955762948e-27
2.356885175e-26
0.2434416373
1.002552617
6.147171489
6.29247325
1.693577624
0.08370049304
0.194325717
0.07513694457
0.1134759274
3.16898883e-23
6.19675175e-24
6.03389451e-24
5.689881199e-24
5.174238102e-24
4.576209986e-24
3.9740539e-24
3.414250418e-24
2.915349221e-24
2.479373433e-24
2.101237696e-24
1.774067994e-24
1.491422438e-24
1.247850773e-24
1.038788995e-24
8.602997239e-25
7.088568501e-25
5.812184936e-25
4.743728871e-25
3.855283536e-25
3.121227647e-25
2.518364054e-25
2.02599794e-25
1.625933337e-25
1.302388285e-25
1.041844449e-25
8.328521703e-26
6.658113322e-26
5.327450186e-26
4.270786892e-26
3.434334868e-26
2.774388168e-26
2.255666573e-26
1.84988128e-26
1.534515805e-26
1.291807099e-26
1.107908258e-26
9.722135233e-27
8.768269536e-27
8.167454245e-27
3.620546087e-26
1.56216237
0.3736339736
2.8393997
7.189761646
5.040913784
0.6944414074
0.1251287468
0.0365612547
0.4381376065
4.074294753e-23
1.2480839e-23
1.033770494e-23
8.439776435e-24
6.837252675e-24
5.541263337e-24
4.520650142e-24
3.723340552e-24
3.094869827e-24
2.589622622e-24
2.174173422e-24
1.825967903e-24
1.53040644e-24
1.278024497e-24
1.062379626e-24
8.786867104e-25
7.230340571e-25
5.919837779e-25
4.823978821e-25
3.913819124e-25
3.162802945e-25
2.546873335e-25
2.044565349e-25
1.637017203e-25
1.307890294e-25
1.043214228e-25
8.311810794e-26
6.619125099e-26
5.272191733e-26
4.203666081e-26
3.358569813e-26
2.692320611e-26
2.16899816e-26
1.759849594e-26
1.442024343e-26
1.197520767e-26
1.01232362e-26
8.757109495e-27
7.797093017e-27
7.192227888e-27
5.18405464e-26
3.44514742
3.219830275
0.3943419902
5.807629267
8.828534055
2.754756682
0.1139334522
0.02559955176
1.231718027
6.069510025e-23
2.63221319e-23
1.827755391e-23
1.276990257e-23
9.104852349e-24
6.695499411e-24
5.104039993e-24
4.026368215e-24
3.264228444e-24
2.695565888e-24
2.248718016e-24
1.883081907e-24
1.576061773e-24
1.314915688e-24
1.091988647e-24
9.021004295e-25
7.412157534e-25
6.058304129e-25
4.927295853e-25
3.989217687e-25
3.216429304e-25
2.583787426e-25
2.068822624e-25
1.651796711e-25
1.315638813e-25
1.045786617e-25
8.299659819e-26
6.5793888e-26
5.21243075e-26
4.129398939e-26
3.273804139e-26
2.59995675e-26
2.071131478e-26
1.657994355e-26
1.337278051e-26
1.090684084e-26
9.039875507e-27
7.663201241e-27
6.69607608e-27
6.086393091e-27
6.952526531e-26
4.557296852
7.552207533
0.6080619829
2.844342772
10.8559396
7.806979403
0.874481708
0.006349429986
2.572887797
1.180724812e-22
5.926061843e-23
3.316100252e-23
1.933374787e-23
1.189013232e-23
7.841549496e-24
5.575637268e-24
4.236104865e-24
3.378496361e-24
2.776375118e-24
2.316370656e-24
1.942676727e-24
1.628081621e-24
1.359067007e-24
1.128328055e-24
9.311692728e-25
7.638822823e-25
6.230999855e-25
5.056021768e-25
4.083070221e-25
3.28320942e-25
2.629911271e-25
2.099405832e-25
1.670821616e-25
1.326147614e-25
1.050068465e-25
8.297224092e-26
6.544220928e-26
5.15367177e-26
4.053678645e-26
3.185906898e-26
2.503322753e-26
1.968229148e-26
1.550594132e-26
1.22665203e-26
9.777506883e-27
7.894159914e-27
6.506056991e-27
5.531262166e-27
4.916339992e-27
8.818139566e-26
3.971792584
10.43423962
4.112909508
0.1997148588
8.524252486
14.78031451
4.064020667
0.05060009389
2.73935167
3.637762283e-22
1.445130928e-22
6.19658696e-23
2.87102628e-23
1.466979944e-23
8.536292201e-24
5.689760022e-24
4.236586911e-24
3.388937204e-24
2.814417363e-24
2.372622375e-24
2.005136429e-24
1.688245622e-24
1.41231339e-24
1.172872884e-24
9.669571083e-25
7.91755875e-25
6.442653869e-25
5.213197966e-25
4.197336854e-25
3.364443017e-25
2.686161049e-25
2.137022158e-25
1.694695937e-25
1.339979107e-25
1.056614563e-25
8.310149403e-26
6.519442866e-26
5.101935898e-26
3.982722116e-26
3.101273616e-26
2.408970444e-26
1.86697615e-26
1.444445139e-26
1.117033843e-26
8.656819099e-27
6.756287842e-27
5.356331517e-27
4.373655469e-27
3.75332764e-27
1.066654646e-25
1.649323518
8.841509609
9.047042543
1.606667734
2.414235955
15.45774436
10.73669444
0.8025991412
3.089535695
7.550720023e-22
4.32347862e-22
1.218356015e-22
4.015717735e-23
1.597984631e-23
8.042812583e-24
5.149387855e-24
3.924195323e-24
3.267419453e-24
2.807945049e-24
2.423152475e-24
2.076877944e-24
1.761751646e-24
1.478370364e-24
1.228108509e-24
1.011058342e-24
8.25830435e-25
6.69934473e-25
5.402510968e-25
4.334270884e-25
3.461554602e-25
2.753502312e-25
2.182398052e-25
1.724033663e-25
1.357704977e-25
1.065991105e-25
8.34421965e-26
6.511031462e-26
5.063408203e-26
3.922910794e-26
3.026458897e-26
2.32360129e-26
1.774195456e-26
1.346469137e-26
1.015424455e-26
7.615413728e-27
5.697383868e-27
4.28552227e-27
3.295027439e-27
2.6693177e-27
1.23837304e-25
0.3154573174
2.911650494
10.06619428
7.778216761
0.2677947592
7.38744589
16.49576167
4.308640349
14.18480634
6.218955976e-21
1.205620256e-21
2.037409432e-22
4.615100266e-23
1.344077979e-23
5.720733002e-24
3.827018814e-24
3.30815378e-24
3.049259942e-24
2.788900202e-24
2.491121281e-24
2.173288747e-24
1.858362927e-24
1.56325358e-24
1.29766199e-24
1.065621312e-24
8.673593333e-25
7.008299183e-25
5.628106143e-25
4.496271242e-25
3.575983026e-25
2.83286802e-25
2.236216876e-25
1.759408903e-25
1.37986376e-25
1.078737279e-25
8.404991162e-26
6.524758643e-26
5.044075119e-26
3.880421895e-26
2.967799779e-26
2.253681444e-26
1.696455065e-26
1.263313119e-26
9.285313496e-27
6.720823603e-27
4.78532329e-27
3.36175572e-27
2.363681556e-27
1.732736132e-27
1.386294413e-25
0.2328998927
0.0837366114
4.13552932
11.68978325
6.517770637
0.5085625699
16.28775217
13.42759621
120.2924264
7.492987749e-21
1.818083646e-21
2.688729278e-22
4.475328079e-23
7.773886261e-24
2.25593676e-24
2.157985374e-24
2.640428955e-24
2.876856741e-24
2.837613463e-24
2.622016671e-24
2.320203941e-24
1.992754449e-24
1.675272642e-24
1.386209426e-24
1.133254132e-24
9.177815365e-25
7.377367181e-25
5.894231573e-25
4.685645472e-25
3.709023408e-25
2.925050628e-25
2.299041775e-25
1.80129702e-25
1.406912403e-25
1.095322467e-25
8.497392745e-26
6.56580318e-26
5.049338915e-26
3.860840938e-26
2.931024208e-26
2.205045421e-26
1.639666886e-26
1.200943786e-26
8.623591237e-27
6.033351078e-27
4.080578174e-27
2.645613616e-27
1.640267953e-27
1.004282774e-27
1.501133095e-25
0.05354804339
0.09615380528
0.4042499967
7.14310315
14.53836833
2.378754789
10.44970191
22.75408783
561.2773511
4.649759036e-21
1.640527948e-21
2.570388394e-22
3.940099059e-23
3.883821752e-24
1.131699582e-25
1.262769586e-24
2.439704141e-24
3.000842239e-24
3.080233856e-24
2.881318792e-24
2.552300057e-24
2.183487587e-24
1.824393472e-24
1.499084081e-24
1.216785574e-24
9.785764125e-25
7.814142343e-25
6.204704331e-25
4.904283005e-25
3.861623082e-25
3.030569929e-25
2.37122513e-25
1.850007829e-25
1.439172749e-25
1.116099998e-25
8.625301739e-26
6.638346267e-26
5.083622534e-26
3.868770501e-26
2.920861062e-26
2.182506242e-26
1.608696585e-26
1.164257012e-26
8.218186365e-27
5.602157456e-27
3.632306082e-27
2.186222467e-27
1.173874883e-27
5.330249011e-28
1.575582488e-25
0.001131095877
0.02598152331
0.09028255468
2.193763736
14.87900747
12.08956039
4.279623509
26.46215832
1526.017353
4.925043302e-21
9.157792836e-22
1.974711183e-22
4.157162737e-23
7.384360928e-24
1.941314379e-24
2.380916615e-24
3.296725539e-24
3.710463107e-24
3.661988575e-24
3.343326452e-24
2.9080212e-24
2.450535053e-24
2.020962601e-24
1.641592835e-24
1.318889193e-24
1.051053428e-24
8.324769951e-25
6.562226133e-25
5.153255451e-25
4.034141779e-25
3.149522945e-25
2.452808645e-25
1.905613645e-25
1.476775137e-25
1.141259393e-25
8.791114966e-26
6.745170242e-26
5.149984928e-26
3.907456228e-26
2.940673688e-26
2.189494766e-26
1.607007713e-26
1.156726098e-26
8.103788705e-27
5.461812978e-27
3.474926853e-27
2.01785245e-27
9.986448515e-28
3.530250468e-28
1.604795181e-25
0.00122171232
0.003762668985
0.02243331579
0.4175123187
9.951194185
22.40969641
1.808799281
31.25396924
3413.958324
8.89783121e-22
5.244192379e-22
1.872119717e-22
6.041429107e-23
1.993482542e-23
8.796845083e-24
6.232717923e-24
5.644039563e-24
5.247070756e-24
4.71261389e-24
4.076343904e-24
3.42279157e-24
2.811989458e-24
2.274040021e-24
1.818144921e-24
1.441617973e-24
1.136099683e-24
8.912559437e-25
6.967610147e-25
5.432377447e-25
4.226094722e-25
3.281426665e-25
2.543420675e-25
1.967876681e-25
1.519602525e-25
1.170780006e-25
8.995341187e-26
6.887286154e-26
5.24977236e-26
3.978455554e-26
2.992142388e-26
2.227753638e-26
1.63636547e-26
1.180114061e-26
8.297865789e-27
5.629556036e-27
3.625434046e-27
2.157270738e-27
1.13115947e-27
4.807467661e-28
1.586720212e-25
0.007539063148
0.01759674822
0.06399909163
0.05816212875
4.606842085
27.40838151
5.082593987
33.31978756
6766.08852
5.176970058e-22
4.274369841e-22
2.068719562e-22
8.997718903e-23
3.996923008e-23
2.058059543e-23
1.306590844e-23
9.720018003e-24
7.770718275e-24
6.325855062e-24
5.131383252e-24
4.122987445e-24
3.280868669e-24
2.589702977e-24
2.031347531e-24
1.585919906e-24
1.233919137e-24
9.576571286e-25
7.419007125e-25
5.739775152e-25
4.43590467e-25
3.425068702e-25
2.642180173e-25
2.036182143e-25
1.567239916e-25
1.204389968e-25
9.236249793e-26
7.063622221e-26
5.38233591e-26
4.081378047e-26
3.07502365e-26
2.297112636e-26
1.696625991e-26
1.234274953e-26
8.798779355e-27
6.103496879e-27
4.081670463e-27
2.602073938e-27
1.568814288e-27
9.134574171e-28
1.522271783e-25
0.02327582202
0.03496258048
0.09311800374
0.2304827429
0.9377838001
24.52131241
16.51440116
29.13038417
11670.4537
5.626258468e-22
4.89247843e-22
2.661964597e-22
1.342549398e-22
6.830507569e-23
3.755615182e-23
2.306970082e-23
1.566736836e-23
1.137447984e-23
8.55535239e-24
6.536402034e-24
5.021786704e-24
3.862578773e-24
2.969597214e-24
2.281205945e-24
1.751204252e-24
1.343799546e-24
1.031036751e-24
7.911232059e-25
6.071517818e-25
4.660694269e-25
3.578384516e-25
2.747619086e-25
2.109485168e-25
1.618935182e-25
1.24153539e-25
9.509617677e-26
7.270810177e-26
5.544848572e-26
4.21372785e-26
3.18701421e-26
2.395371425e-26
1.785635308e-26
1.317066818e-26
9.585034267e-27
6.861966588e-27
4.821758935e-27
3.330183301e-27
2.289361711e-27
1.628802386e-27
1.415313166e-25
0.03953732983
0.05415779651
0.07154953161
0.2500064584
0.04075885425
14.55014129
35.43191733
18.69346868
17555.33657
7.850512601e-22
6.924940011e-22
3.796304475e-22
2.0127355e-22
1.078464296e-22
6.066772417e-23
3.655885808e-23
2.359960713e-23
1.610066147e-23
1.141493766e-23
8.293285218e-24
6.116439761e-24
4.553088639e-24
3.409851141e-24
2.564515636e-24
1.935013141e-24
1.463938923e-24
1.110110608e-24
8.435293062e-25
6.42137046e-25
4.89615278e-25
3.738382108e-25
2.857636831e-25
2.186281153e-25
1.673578409e-25
1.281365403e-25
9.808620281e-26
7.503108339e-26
5.732255318e-26
4.370877276e-26
3.323745361e-26
2.518312105e-26
1.899257826e-26
1.424393927e-26
1.061581787e-26
7.864154168e-27
5.804818948e-27
4.300623684e-27
3.251735941e-27
2.585660077e-27
1.272450803e-25
0.04879608962
0.06224648702
0.06811609698
0.1498276135
0.3721935392
5.427004606
50.23970355
6.975169715
23020.46562
1.13440818e-21
1.09876802e-21
5.724063866e-22
3.013391029e-22
1.623772224e-22
9.114977639e-23
5.387556172e-23
3.357672227e-23
2.193194514e-23
1.487345282e-23
1.037441463e-23
7.386108866e-24
5.337663407e-24
3.9003778e-24
2.874496549e-24
2.132838251e-24
1.591357465e-24
1.192913647e-24
8.978215464e-25
6.780722783e-25
5.136510685e-25
3.901135391e-25
2.969500987e-25
2.264609361e-25
1.729707068e-25
1.322738661e-25
1.012391106e-25
7.752496929e-26
5.937384931e-26
4.546194942e-26
3.478926539e-26
2.659856952e-26
2.031546704e-26
1.550388176e-26
1.183290823e-26
9.052093467e-27
6.973017471e-27
5.455624336e-27
4.398190518e-27
3.726303368e-27
1.102645995e-25
0.05029727249
0.05903038055
0.07590778111
0.08956848276
0.4800140723
1.097284841
53.50812516
0.4624789369
26241.19022
1.772750884e-21
1.770815019e-21
8.666986119e-22
4.426948783e-22
2.347690312e-22
1.298213086e-22
7.513222858e-23
4.551488696e-23
2.875946308e-23
1.884299378e-23
1.271811324e-23
8.790041794e-24
6.190137111e-24
4.424605631e-24
3.200713603e-24
2.338115075e-24
1.721915971e-24
1.276822521e-24
9.523238464e-25
7.138741113e-25
5.374651136e-25
4.061864861e-25
3.079906672e-25
2.342098559e-25
1.785543299e-25
1.364255932e-25
1.04439238e-25
8.008971126e-26
6.151242112e-26
4.731341457e-26
3.644646734e-26
2.812376297e-26
2.17505813e-26
1.68772927e-26
1.316392787e-26
1.035396092e-26
8.25490275e-27
6.723980949e-27
5.657681171e-27
4.979795861e-27
9.166643379e-26
0.04514147349
0.04976705562
0.07422329159
0.06335869303
0.2890398555
0.4713795628
44.68174179
2.292059755
25660.73085
3.653115158e-21
2.692700599e-21
1.260747538e-21
6.258312623e-22
3.251267064e-22
1.763919746e-22
9.994205132e-23
5.908375468e-23
3.634519458e-23
2.316594102e-23
1.522463911e-23
1.026665442e-23
7.072955421e-24
4.959746559e-24
3.529339678e-24
2.5424253e-24
1.850457629e-24
1.35865056e-24
1.005043814e-24
7.482774973e-25
5.602377592e-25
4.215117897e-25
3.185102778e-25
2.416060169e-25
1.839067056e-25
1.40432125e-25
1.075541306e-25
8.261039891e-26
6.363482279e-26
4.916730582e-26
3.811828077e-26
2.967138018e-26
2.321298682e-26
1.82809103e-26
1.452680205e-26
1.168853197e-26
9.569860148e-27
8.025511463e-27
6.950321744e-27
6.26644769e-27
7.263952866e-26
0.03531371582
0.03880960549
0.06225991523
0.06358648902
0.1260016844
1.206412272
33.51278223
9.85957829
21694.66257
7.243475324e-21
3.679357068e-21
1.719209596e-21
8.423975292e-22
4.303472655e-22
2.291732676e-22
1.272645437e-22
7.363826872e-23
4.429666445e-23
2.760766721e-23
1.775536517e-23
1.173453789e-23
7.938385546e-24
5.477759289e-24
3.843824755e-24
2.735933192e-24
1.971083742e-24
1.43481953e-24
1.053779513e-24
7.799026354e-25
5.810841457e-25
4.355050584e-25
3.2810859e-25
2.483629116e-25
1.888124716e-25
1.441230779e-25
1.104422041e-25
8.496414906e-26
6.563050658e-26
5.09213526e-26
3.970809243e-26
3.11487493e-26
2.461281013e-26
1.962688262e-26
1.583515975e-26
1.297052952e-26
1.083341997e-26
9.276333152e-27
8.192639121e-27
7.503055772e-27
5.440847235e-26
0.02334172707
0.02763547114
0.04377835256
0.08165731939
0.03796781431
2.292375993
22.52864247
21.15006202
15452.89865
1.020426688e-20
4.641257247e-21
2.223861912e-21
1.084841257e-21
5.45687911e-22
2.852319897e-22
1.553794222e-22
8.819920801e-23
5.206362371e-23
3.186010087e-23
2.013756902e-23
1.309642801e-23
8.73130502e-24
5.947157616e-24
4.126018716e-24
2.908066676e-24
2.077562497e-24
1.501604689e-24
1.09626741e-24
8.073456768e-25
5.991112084e-25
4.475798681e-25
3.363852995e-25
2.541945459e-25
1.930567482e-25
1.473284433e-25
1.129622089e-25
8.702846697e-26
6.738944311e-26
5.247398251e-26
4.112019214e-26
3.246431253e-26
2.586149566e-26
2.082886395e-26
1.700430392e-26
1.411649489e-26
1.196305116e-26
1.039459751e-26
9.303265621e-27
8.608568372e-27
3.815313628e-26
0.0121230011
0.01781936639
0.02284377203
0.1025994907
0.06244615814
2.950440546
14.90043643
32.35178525
8398.243497
9.116089024e-21
5.706574622e-21
2.821155043e-21
1.35436157e-21
6.65666752e-22
3.404230401e-22
1.818832668e-22
1.014706948e-22
5.896024982e-23
3.555974891e-23
2.217676156e-23
1.424695233e-23
9.393850512e-24
6.335730525e-24
4.357743009e-24
3.048421763e-24
2.163850723e-24
1.555438266e-24
1.130361424e-24
8.292866121e-25
6.134846054e-25
4.571908944e-25
3.429692775e-25
2.5883622e-25
1.964408292e-25
1.498911059e-25
1.149837158e-25
8.869038713e-26
6.88103433e-26
5.373189323e-26
4.226686983e-26
3.353436616e-26
2.687827114e-26
2.180826538e-26
1.795729261e-26
1.505073549e-26
1.288400466e-26
1.130625446e-26
1.020864603e-26
9.509754772e-27
2.49302182e-26
0.004320417791
0.01029402307
0.0103188611
0.08786166677
0.1389611932
2.050486421
7.571479111
27.23480483
2799.075534
3.641963153e-21
8.888571751e-21
3.710460237e-21
1.659668491e-21
7.819205131e-22
3.887795579e-22
2.036218206e-22
1.118923665e-22
6.421965801e-23
3.832417758e-23
2.367806838e-23
1.50845223e-23
9.87190182e-24
6.614062393e-24
4.522709475e-24
3.147817931e-24
2.224681772e-24
1.593242327e-24
1.154225333e-24
8.446034307e-25
6.23498729e-25
4.638786456e-25
3.475485785e-25
2.62065785e-25
1.987981144e-25
1.516794474e-25
1.163975729e-25
8.985549997e-26
6.980869734e-26
5.461738604e-26
4.307522906e-26
3.428948052e-26
2.759626334e-26
2.250013203e-26
1.863062791e-26
1.571086511e-26
1.353473798e-26
1.195038886e-26
1.08483107e-26
1.014643706e-26
1.560223497e-26
0.0006955360178
0.006169618637
0.006328246742
0.06340050441
0.1604742697
1.797813735
4.763836715
32.21726458
968.4112449
0.0005370808135
7.16083034e-21
5.167345175e-21
1.985096812e-21
8.740234731e-22
4.207106456e-22
2.165929875e-22
1.177804538e-22
6.710264339e-23
3.981262857e-23
2.447715594e-23
1.552675901e-23
1.012280097e-23
6.759450923e-24
4.608546704e-24
3.199368146e-24
2.256143126e-24
1.612748041e-24
1.166513968e-24
8.524781784e-25
6.286410974e-25
4.673102946e-25
3.498976656e-25
2.637228219e-25
2.000084012e-25
1.525985792e-25
1.171251608e-25
9.045588117e-26
7.032378432e-26
5.507471526e-26
4.349304798e-26
3.467998998e-26
2.796770082e-26
2.285812039e-26
1.897905521e-26
1.605246291e-26
1.387146487e-26
1.22836874e-26
1.117928263e-26
1.047585827e-26
1.077909729e-26
0.0006957054652
0.006169808178
0.006328372821
0.06340085688
0.1604740664
1.797815284
4.76383389
32.21724403
968.4088983
0.0005371854409
7.160831877e-21
5.167337239e-21
1.985095617e-21
8.740232696e-22
4.207106312e-22
2.165930142e-22
1.177804864e-22
6.71026723e-23
3.981265168e-23
2.447717354e-23
1.552677207e-23
1.012281053e-23
6.759457887e-24
4.608551775e-24
3.199371851e-24
2.256145848e-24
1.612750053e-24
1.166515467e-24
8.524793019e-25
6.286419445e-25
4.673109362e-25
3.498981526e-25
2.637231914e-25
2.000086808e-25
1.525987891e-25
1.171253164e-25
9.0455994e-26
7.032386344e-26
5.507476763e-26
4.349307907e-26
3.468000413e-26
2.796770147e-26
2.285811033e-26
1.897903668e-26
1.605243779e-26
1.387143468e-26
1.228365344e-26
1.117924601e-26
1.047582082e-26
1.077656101e-26
0.004320981748
0.01029464179
0.01031940762
0.08786277331
0.1389606013
2.050490989
7.571483361
27.23480429
2799.069805
3.64194628e-21
8.888550402e-21
3.710455942e-21
1.659667325e-21
7.819202268e-22
3.887795521e-22
2.036218994e-22
1.118924597e-22
6.421974145e-23
3.832424482e-23
2.367811986e-23
1.508456064e-23
9.871929966e-24
6.614082935e-24
4.522724458e-24
3.147828893e-24
2.224689835e-24
1.593248296e-24
1.154229783e-24
8.446067706e-25
6.235012502e-25
4.638805571e-25
3.475500313e-25
2.620668889e-25
1.987989506e-25
1.516800762e-25
1.163980397e-25
8.985583943e-26
6.980893614e-26
5.461754491e-26
4.307532429e-26
3.428952501e-26
2.759626739e-26
2.250010395e-26
1.863057446e-26
1.571079182e-26
1.353464946e-26
1.1950289e-26
1.084820284e-26
1.014632664e-26
1.559464496e-26
0.01212410696
0.017820545
0.022845061
0.1026013361
0.06244579009
2.950450447
14.90044985
32.35181869
8398.233297
9.116098759e-21
5.706571786e-21
2.821152651e-21
1.35436049e-21
6.656664054e-22
3.404230259e-22
1.818833774e-22
1.01470834e-22
5.896037838e-23
3.555985443e-23
2.217684324e-23
1.424701361e-23
9.393895726e-24
6.335763646e-24
4.357767239e-24
3.048439535e-24
2.163863826e-24
1.555447989e-24
1.13036869e-24
8.292920778e-25
6.13488741e-25
4.571940373e-25
3.429716719e-25
2.588380441e-25
1.964422147e-25
1.498921509e-25
1.149844944e-25
8.869095597e-26
6.881074598e-26
5.373216374e-26
4.226703492e-26
3.353444706e-26
2.687828483e-26
2.180822557e-26
1.795721048e-26
1.505062022e-26
1.28838639e-26
1.130609469e-26
1.020847285e-26
9.509577147e-27
2.491763153e-26
0.02334358503
0.02763737719
0.04378062567
0.08165967875
0.0379691661
2.292387698
22.5286667
21.15009131
15452.88837
1.020427512e-20
4.641255411e-21
2.22385967e-21
1.084839997e-21
5.456874193e-22
2.85231917e-22
1.553795318e-22
8.819937228e-23
5.206378425e-23
3.186023638e-23
2.013767563e-23
1.309650879e-23
8.73136503e-24
5.947201795e-24
4.126051167e-24
2.908090564e-24
2.077580169e-24
1.501617847e-24
1.096277275e-24
8.073531235e-25
5.991168625e-25
4.475841801e-25
3.363885964e-25
2.541970671e-25
1.930586709e-25
1.473299e-25
1.129633001e-25
8.702926945e-26
6.739001631e-26
5.247437286e-26
4.112043628e-26
3.246443958e-26
2.586152903e-26
2.082882256e-26
1.700420323e-26
1.411634767e-26
1.196286806e-26
1.039438761e-26
9.303036765e-27
8.608332894e-27
3.813564999e-26
0.03531659291
0.03881244316
0.06226321004
0.06358879415
0.1260047296
1.206417431
33.51283857
9.859585157
21694.65418
7.243471089e-21
3.679353476e-21
1.71920671e-21
8.423958671e-22
4.303465351e-22
2.291730826e-22
1.272646186e-22
7.363843672e-23
4.429684336e-23
2.760782386e-23
1.775549081e-23
1.17346342e-23
7.938457637e-24
5.477812664e-24
3.843864148e-24
2.735962317e-24
1.971105379e-24
1.43483571e-24
1.053791697e-24
7.799118732e-25
5.810911913e-25
4.355104564e-25
3.281127367e-25
2.483660982e-25
1.888149146e-25
1.441249397e-25
1.104436082e-25
8.496519042e-26
6.563125883e-26
5.092187352e-26
3.970842773e-26
3.114893549e-26
2.461287661e-26
1.962685327e-26
1.583505414e-26
1.297036386e-26
1.08332079e-26
9.276086289e-27
8.192367601e-27
7.502775081e-27
5.438622611e-26
0.04514571803
0.04977115176
0.07422756276
0.0633604832
0.2890430126
0.4713721507
44.68184601
2.292059382
25660.71887
3.653108621e-21
2.692695475e-21
1.260744044e-21
6.258291437e-22
3.251256815e-22
1.763916382e-22
9.994206643e-23
5.908391004e-23
3.634538076e-23
2.316611103e-23
1.522477824e-23
1.026676228e-23
7.073036763e-24
4.959807123e-24
3.529384596e-24
2.542458669e-24
1.850482542e-24
1.358669283e-24
1.005057987e-24
7.482883015e-25
5.602460449e-25
4.215181735e-25
3.185152101e-25
2.416098299e-25
1.839096474e-25
1.404343828e-25
1.075558473e-25
8.261168476e-26
6.363576384e-26
4.916796984e-26
3.811872161e-26
2.967164103e-26
2.32131026e-26
1.828090947e-26
1.452670807e-26
1.168836437e-26
9.569635416e-27
8.025243769e-27
6.950023506e-27
6.266137271e-27
7.261270824e-26
0.05030331489
0.05903632358
0.07591264815
0.08957001528
0.4800122116
1.097285143
53.50824482
0.4624715752
26241.17355
1.772750233e-21
1.77081164e-21
8.666950904e-22
4.426923573e-22
2.347676918e-22
1.298208032e-22
7.513217301e-23
4.551502199e-23
2.87596502e-23
1.884317177e-23
1.271826142e-23
8.790157696e-24
6.19022502e-24
4.424671391e-24
3.2007626e-24
2.338151654e-24
1.721943425e-24
1.276843273e-24
9.523396505e-25
7.138862343e-25
5.374744706e-25
4.061937425e-25
3.079963113e-25
2.342142496e-25
1.785577447e-25
1.364282353e-25
1.044412654e-25
8.009124681e-26
6.151356111e-26
4.731423523e-26
3.644702956e-26
2.81241158e-26
2.175076457e-26
1.687733908e-26
1.316386439e-26
1.035381023e-26
8.254684082e-27
6.723710954e-27
5.657374553e-27
4.979473526e-27
9.163527511e-26
0.04880430286
0.06225516102
0.06812164609
0.1498330015
0.3721961812
5.427017484
50.2398065
6.975101531
23020.46705
1.134411892e-21
1.09876772e-21
5.724030442e-22
3.013361605e-22
1.623755536e-22
9.114910513e-23
5.38754419e-23
3.357684004e-23
2.193213273e-23
1.487363636e-23
1.037456883e-23
7.386229951e-24
5.337755496e-24
3.900446893e-24
2.874548226e-24
2.132877014e-24
1.591386722e-24
1.192935902e-24
8.978386105e-25
6.78085461e-25
5.136613178e-25
3.901215466e-25
2.969563741e-25
2.264658594e-25
1.729745647e-25
1.322768776e-25
1.012414449e-25
7.752675856e-26
5.937519786e-26
4.54629403e-26
3.478996531e-26
2.659903251e-26
2.031573722e-26
1.550399546e-26
1.183289571e-26
9.051980217e-27
6.972825332e-27
5.45537235e-27
4.397895652e-27
3.725988674e-27
1.102293928e-25
0.03954724483
0.05416918631
0.07155844125
0.2500405559
0.0407616806
14.55029415
35.43170933
18.69345113
17555.35381
7.850623335e-22
6.924969907e-22
3.796269337e-22
2.012700137e-22
1.078444108e-22
6.0666914e-23
3.655869983e-23
2.359972189e-23
1.610085468e-23
1.1415127e-23
8.293443694e-24
6.116563793e-24
4.553182837e-24
3.40992187e-24
2.564568686e-24
1.935053115e-24
1.463969273e-24
1.110133852e-24
8.435472636e-25
6.421510286e-25
4.896262374e-25
3.738468434e-25
2.857705047e-25
2.186335128e-25
1.673621082e-25
1.281399033e-25
9.808883758e-26
7.50331284e-26
5.732411848e-26
4.370994654e-26
3.323830714e-26
2.518371237e-26
1.899295503e-26
1.424414095e-26
1.061587753e-26
7.864099855e-27
5.804674869e-27
4.300411147e-27
3.251474118e-27
2.585373717e-27
1.272061742e-25
0.02328488416
0.03497329999
0.09313515028
0.2305320836
0.9379373584
24.52138231
16.51358661
29.13032673
11670.45479
5.626511228e-22
4.892527242e-22
2.661916896e-22
1.342504779e-22
6.830270308e-23
3.755526485e-23
2.306955127e-23
1.566750409e-23
1.137468778e-23
8.555549353e-24
6.536563708e-24
5.021911798e-24
3.862673229e-24
2.969668034e-24
2.281259165e-24
1.751244533e-24
1.343830322e-24
1.0310605e-24
7.911417061e-25
6.071663127e-25
4.660809171e-25
3.578475832e-25
2.747691893e-25
2.109543301e-25
1.618981575e-25
1.241572321e-25
9.509910244e-26
7.271040178e-26
5.545027361e-26
4.213864596e-26
3.187116369e-26
2.395445104e-26
1.785685551e-26
1.317097824e-26
9.585187341e-27
6.861992911e-27
4.821684814e-27
3.330032123e-27
2.289154756e-27
1.628565587e-27
1.414891215e-25
0.00754393908
0.01760378789
0.06401576446
0.05816569468
4.607655152
27.40719841
5.082271856
33.31919751
6766.068416
5.177430536e-22
4.274393681e-22
2.06863891e-22
8.997139726e-23
3.996658221e-23
2.057974652e-23
1.306583426e-23
9.720203416e-24
7.770950298e-24
6.326060973e-24
5.13154673e-24
4.123111631e-24
3.280961579e-24
2.589772437e-24
2.031399813e-24
1.58595967e-24
1.233949733e-24
9.576809383e-25
7.41919431e-25
5.73992358e-25
4.436023167e-25
3.425163776e-25
2.642256699e-25
2.03624383e-25
1.567289629e-25
1.204429952e-25
9.236570129e-26
7.063877294e-26
5.38253722e-26
4.081534952e-26
3.075143814e-26
2.297202375e-26
1.696690548e-26
1.234318716e-26
8.799046241e-27
6.103625e-27
4.081687882e-27
2.602005869e-27
1.568683963e-27
9.132913774e-28
1.521821695e-25
0.001222752559
0.003765131173
0.02242261904
0.4176013574
9.95290073
22.40650825
1.809801174
31.25228975
3413.932151
8.8991385e-22
5.244100989e-22
1.871970487e-22
6.040691318e-23
1.993215799e-23
8.796205305e-24
6.232790771e-24
5.644297195e-24
5.247330752e-24
4.712826971e-24
4.076506365e-24
3.422912346e-24
2.812078895e-24
2.274106705e-24
1.818195241e-24
1.441656478e-24
1.136129558e-24
8.912794177e-25
6.967796593e-25
5.432526835e-25
4.22621522e-25
3.281524324e-25
2.543500063e-25
1.967941308e-25
1.51965513e-25
1.170822759e-25
8.995687572e-26
6.887565459e-26
5.249996049e-26
3.978633033e-26
2.992281415e-26
2.227860649e-26
1.636445834e-26
1.180172294e-26
8.298265239e-27
5.629805853e-27
3.625563632e-27
2.1573068e-27
1.131126955e-27
4.806721763e-28
1.586247398e-25
0.001130028712
0.02596520949
0.09026176164
2.194375418
14.88137963
12.08564261
4.282058729
26.45896191
1525.998053
4.924721916e-21
9.156640138e-22
1.974425589e-22
4.156311391e-23
7.382137954e-24
1.941050659e-24
2.381174335e-24
3.297054642e-24
3.710742993e-24
3.662201666e-24
3.343482894e-24
2.908135297e-24
2.450618902e-24
2.021025118e-24
1.641640251e-24
1.318925782e-24
1.051082112e-24
8.324997897e-25
6.562409286e-25
5.153403879e-25
4.034262827e-25
3.149622093e-25
2.452890071e-25
1.905680596e-25
1.476830183e-25
1.141304595e-25
8.791485249e-26
6.745472472e-26
5.150230377e-26
3.907654227e-26
2.940831999e-26
2.189619863e-26
1.607105026e-26
1.156800212e-26
8.104336993e-27
5.462202401e-27
3.47518767e-27
2.018012433e-27
9.987303243e-28
3.530617415e-28
1.604305712e-25
0.05352498088
0.0961191259
0.4043851786
7.145101793
14.54071841
2.37651465
10.45346325
22.74841237
561.2818106
4.648195889e-21
1.640348358e-21
2.56999449e-22