/*--------------------------------*- C++ -*----------------------------------*\
  =========                 |
  \\      /  F ield         | OpenFOAM: The Open Source CFD Toolbox
   \\    /   O peration     | Website:  https://openfoam.org
    \\  /    A nd           | Version:  6
     \\/     M anipulation  |
\*---------------------------------------------------------------------------*/
FoamFile
{
    version     2.0;
    format      ascii;
    class       surfaceScalarField;
    location    "0.06";
    object      alphaPhi0.phase1;
}
// * * * * * * * * * * * * * * * * * * * * * * * * * * * * * * * * * * * * * //

dimensions      [0 3 -1 0 0 0 0];

internalField   nonuniform List<scalar> 
4900
(
4.598357718e-42
-1.938541413e-21
2.101959931e-41
-7.759280488e-22
5.913950844e-62
-1.632429577e-22
-5.993399913e-28
-2.473836272e-24
-2.707403145e-28
-1.738176988e-29
6.519056942e-29
-1.661728177e-29
3.278218917e-31
5.003247802e-58
1.756271934e-17
3.358874827e-19
-4.964776984e-21
2.006807044e-24
-4.923581387e-21
-4.119559904e-23
-4.841452711e-21
-8.213152025e-23
-4.721375361e-21
-1.200837413e-22
-4.567434631e-21
-1.53950459e-22
-4.384550315e-21
-1.828972919e-22
-4.178161761e-21
-2.064047403e-22
-3.953911039e-21
-2.242700848e-22
-3.717355831e-21
-2.36577714e-22
-3.473732593e-21
-2.436488481e-22
-3.227780307e-21
-2.459809557e-22
-2.983626301e-21
-2.44185686e-22
-2.744729056e-21
-2.389318822e-22
-2.513868833e-21
-2.308977577e-22
-2.293175138e-21
-2.207340636e-22
-2.084179936e-21
-2.090383378e-22
-1.887886605e-21
-1.963391614e-22
-1.704846334e-21
-1.830887209e-22
-1.535235565e-21
-1.696617582e-22
-1.37892995e-21
-1.563590615e-22
-1.235571888e-21
-1.434138806e-22
-1.104630027e-21
-1.309999611e-22
-9.854501122e-22
-1.192402062e-22
-8.772972343e-22
-1.082152657e-22
-7.793900284e-22
-9.797159402e-23
-6.909276063e-22
-8.852871178e-23
-6.111101521e-22
-7.988554523e-23
-5.39154123e-22
-7.202581922e-23
-4.743029654e-22
-6.492254316e-23
-4.158341729e-22
-5.854166852e-23
-3.630634175e-22
-5.284501565e-23
-3.153463805e-22
-4.779257434e-23
-2.720788068e-22
-4.33442799e-23
-2.326952134e-22
-3.946135964e-23
-1.966665955e-22
-3.610733458e-23
-1.634974009e-22
-3.324875174e-23
-1.327219737e-22
-3.085571446e-23
-1.039006005e-22
-2.890227975e-23
-7.661519312e-23
-2.736682236e-23
-5.046440002e-23
-2.623260572e-23
-2.505712444e-23
-2.548937483e-23
-2.513939886e-23
-2.867512458e-21
-7.651844233e-21
-5.174548512e-22
-5.046385946e-21
-5.144018929e-24
-1.814920706e-21
-6.098693246e-30
-1.723877909e-22
9.304940459e-31
-7.80009517e-25
4.092903639e-30
8.764381326e-61
1.392532206e-32
1.03666793e-57
3.023568695e-18
4.651691571e-19
-5.007450196e-21
4.296485207e-24
-4.964510819e-21
-8.414065164e-23
-4.879399422e-21
-1.672548128e-22
-4.755237904e-21
-2.44263284e-22
-4.596378861e-21
-3.128333642e-22
-4.408056744e-21
-3.712490076e-22
-4.196027519e-21
-4.184692365e-22
-3.966220265e-21
-4.541182215e-22
-3.724429443e-21
-4.784149592e-22
-3.476067749e-21
-4.920624247e-22
-3.225988372e-21
-4.96117587e-22
-2.97837588e-21
-4.918607059e-22
-2.736698177e-21
-4.806772801e-22
-2.503708119e-21
-4.639605641e-22
-2.281482048e-21
-4.430378139e-22
-2.071483014e-21
-4.191198544e-22
-1.874638032e-21
-3.932712923e-22
-1.69142087e-21
-3.663975569e-22
-1.52193403e-21
-3.392446473e-22
-1.365985634e-21
-3.124077283e-22
-1.223158579e-21
-2.863452686e-22
-1.092870672e-21
-2.613960991e-22
-9.744254003e-22
-2.377974379e-22
-8.670536569e-22
-2.157025258e-22
-7.699471376e-22
-1.9519701e-22
-6.822843555e-22
-1.763135907e-22
-6.032502885e-22
-1.590447262e-22
-5.320506742e-22
-1.433533789e-22
-4.679218976e-22
-1.291819088e-22
-4.10137318e-22
-1.164592907e-22
-3.580107741e-22
-1.051068635e-22
-3.108978906e-22
-9.504282987e-23
-2.681957027e-22
-8.618571297e-23
-2.293410199e-22
-7.845696493e-23
-1.938078622e-22
-7.178289501e-23
-1.611042331e-22
-6.609606645e-23
-1.307684302e-22
-6.133628806e-23
-1.02365059e-22
-5.745130878e-23
-7.548092514e-23
-5.439730393e-23
-4.972118048e-23
-5.213919263e-23
-2.470713827e-23
-5.065056463e-23
-4.991149348e-23
-7.74790252e-21
-1.056418465e-20
-3.700017122e-21
-1.028507524e-20
-5.179707873e-22
-7.443898701e-21
4.807960197e-23
-2.526101114e-21
4.83852922e-25
-3.054286098e-23
-6.057063047e-61
1.007046514e-210
0
0
-1.47993598e-18
5.09456891e-19
-5.093811492e-21
6.444475331e-24
-5.047612176e-21
-1.303446179e-22
-4.956396244e-21
-2.584806551e-22
-4.823799412e-21
-3.768753213e-22
-4.654789304e-21
-4.818637502e-22
-4.455275094e-21
-5.707884921e-22
-4.231677597e-21
-6.420969559e-22
-3.990520514e-21
-6.953104216e-22
-3.738082188e-21
-7.308932353e-22
-3.480129307e-21
-7.500600209e-22
-3.221738413e-21
-7.545578842e-22
-2.967199415e-21
-7.464537104e-22
-2.719988093e-21
-7.279471208e-22
-2.48279142e-21
-7.012201692e-22
-2.257569409e-21
-6.683270635e-22
-2.045638978e-21
-6.311217214e-22
-1.847768026e-21
-5.912177574e-22
-1.664270936e-21
-5.499741149e-22
-1.495099403e-21
-5.084994733e-22
-1.339924869e-21
-4.676692483e-22
-1.198210596e-21
-4.281500797e-22
-1.069272778e-21
-3.904278668e-22
-9.523309177e-22
-3.548365113e-22
-8.465483058e-22
-3.215854649e-22
-7.51063682e-22
-2.907849213e-22
-6.650153072e-22
-2.624680568e-22
-5.875586543e-22
-2.366101153e-22
-5.178788502e-22
-2.131444024e-22
-4.551988873e-22
-1.91975411e-22
-3.987844829e-22
-1.729893886e-22
-3.47946334e-22
-1.560626932e-22
-3.020403819e-22
-1.410682815e-22
-2.60466587e-22
-1.278806564e-22
-2.226666134e-22
-1.163795657e-22
-1.881207333e-22
-1.064527093e-22
-1.56344194e-22
-9.799767478e-23
-1.268832322e-22
-9.092328125e-23
-9.931087907e-23
-8.51504828e-23
-7.322268195e-23
-8.061293816e-23
-4.823245278e-23
-7.725730129e-23
-2.396797141e-23
-7.504319091e-23
-7.394274669e-23
-8.457917261e-21
-9.79950486e-21
-6.198810608e-21
-1.329002804e-20
-2.488729333e-21
-1.161916556e-20
1.441471007e-22
-6.943263583e-21
1.420159144e-22
-7.57578797e-22
-3.02166027e-210
-2.067895501e-210
0
0
-1.552577527e-17
5.870336285e-19
-5.227252897e-21
7.878541243e-24
-5.175728091e-21
-1.818740012e-22
-5.074772606e-21
-3.594458721e-22
-4.928774564e-21
-5.228883043e-22
-4.743706287e-21
-6.669519652e-22
-4.526581162e-21
-7.879384807e-22
-4.284893378e-21
-8.838144825e-22
-4.026109391e-21
-9.541289771e-22
-3.757257698e-21
-9.997842628e-22
-3.484637493e-21
-1.022724259e-21
-3.213645226e-21
-1.025598807e-21
-2.948703726e-21
-1.011448406e-21
-2.693271404e-21
-9.834370875e-22
-2.449907576e-21
-9.446459934e-22
-2.22037213e-21
-8.979287545e-22
-2.005741804e-21
-8.458224295e-22
-1.806529924e-21
-7.905040418e-22
-1.622800669e-21
-7.337816738e-22
-1.45427251e-21
-6.771097091e-22
-1.300408129e-21
-6.216193476e-22
-1.160490052e-21
-5.681573786e-22
-1.03368247e-21
-5.173280359e-22
-9.190804226e-22
-4.69534364e-22
-8.157479287e-22
-4.250168357e-22
-7.227466943e-22
-3.838879527e-22
-6.391570329e-22
-3.461622809e-22
-5.640924646e-22
-3.117818552e-22
-4.967092907e-22
-2.806371977e-22
-4.362122474e-22
-2.525843642e-22
-3.818571529e-22
-2.274585184e-22
-3.329512954e-22
-2.050845467e-22
-2.88852156e-22
-1.852852116e-22
-2.489649352e-22
-1.678872952e-22
-2.127392455e-22
-1.527261325e-22
-1.796652432e-22
-1.396488787e-22
-1.492694055e-22
-1.285167996e-22
-1.211101023e-22
-1.192068215e-22
-9.47730679e-23
-1.116125332e-22
-6.986684333e-23
-1.056447862e-22
-4.601820323e-23
-1.01232e-22
-2.286745705e-23
-9.832025706e-23
-9.687333696e-23
-7.15778092e-21
-6.382348486e-21
-6.848539943e-21
-1.299551923e-20
-4.230659131e-21
-1.500391155e-20
-8.574345442e-22
-1.08485304e-20
3.397246286e-22
-3.17951738e-21
2.534296866e-23
4.519590008e-23
-1.642900375e-189
-1.167895287e-187
-1.683223889e-17
1.573670164e-18
-5.412461646e-21
8.410399938e-24
-5.353270617e-21
-2.410696048e-22
-5.238188821e-21
-4.745373865e-22
-5.072819747e-21
-6.882723e-22
-4.864682639e-21
-8.751089854e-22
-4.622454904e-21
-1.030191049e-21
-4.355212372e-21
-1.151086721e-21
-4.07177438e-21
-1.237601496e-21
-3.780210925e-21
-1.291387006e-21
-3.487527226e-21
-1.315451939e-21
-3.199510629e-21
-1.313664004e-21
-2.920707798e-21
-1.290304371e-21
-2.654494566e-21
-1.249707898e-21
-2.403203013e-21
-1.195999472e-21
-2.168276682e-21
-1.132921253e-21
-1.950432451e-21
-1.063736962e-21
-1.749814824e-21
-9.91195988e-22
-1.566134358e-21
-9.175403538e-22
-1.398786381e-21
-8.445396684e-22
-1.24694918e-21
-7.735421676e-22
-1.109662725e-21
-7.055329539e-22
-9.858900003e-22
-6.411932399e-22
-8.745634572e-22
-5.809566022e-22
-7.746191192e-22
-5.250599365e-22
-6.850207334e-22
-4.735880178e-22
-6.047760606e-22
-4.265113953e-22
-5.329470882e-22
-3.837178751e-22
-4.68655634e-22
-3.45038146e-22
-4.110855268e-22
-3.102662513e-22
-3.594822958e-22
-2.791756521e-22
-3.13151095e-22
-2.515316084e-22
-2.714534169e-22
-2.27100543e-22
-2.338030088e-22
-2.056569818e-22
-1.996612986e-22
-1.869885783e-22
-1.685325491e-22
-1.708996518e-22
-1.399588957e-22
-1.57213595e-22
-1.135153686e-22
-1.457744386e-22
-8.880496324e-23
-1.364478056e-22
-6.545378777e-23
-1.291214342e-22
-4.310627929e-23
-1.237054143e-22
-2.142044712e-23
-1.201322553e-22
-1.183569129e-22
-4.242166139e-21
-3.788030017e-21
-6.7061153e-21
-1.058818412e-20
-5.598000461e-21
-1.622209209e-20
-2.607218871e-21
-1.444712289e-20
-5.453807773e-24
-6.405211272e-21
4.696130262e-23
4.810437001e-23
-2.502159765e-19
-2.646671645e-111
-1.301042618e-18
1.863411644e-18
-5.656627621e-21
6.982868872e-24
-5.586694684e-21
-3.110071199e-22
-5.451887948e-21
-6.093538438e-22
-5.25963217e-21
-8.80543002e-22
-5.019752548e-21
-1.115008524e-21
-4.743349593e-21
-1.306618842e-21
-4.441735387e-21
-1.452730639e-21
-4.12557491e-21
-1.553796507e-21
-3.804295172e-21
-1.612706039e-21
-3.485760672e-21
-1.634030429e-21
-3.176172649e-21
-1.623300634e-21
-2.880131932e-21
-1.586398231e-21
-2.600804835e-21
-1.529092583e-21
-2.340141101e-21
-1.45672514e-21
-2.099106129e-21
-1.374022404e-21
-1.877902681e-21
-1.285010722e-21
-1.676168033e-21
-1.193004965e-21
-1.493140411e-21
-1.100646201e-21
-1.327793804e-21
-1.009968268e-21
-1.178943372e-21
-9.224782299e-22
-1.045325179e-21
-8.39240278e-22
-9.256545475e-22
-7.609563617e-22
-8.186672161e-22
-6.880396399e-22
-7.231470542e-22
-6.206788723e-22
-6.379435511e-22
-5.588932113e-22
-5.619816951e-22
-5.025777041e-22
-4.942663304e-22
-4.515402982e-22
-4.338826076e-22
-4.05531374e-22
-3.79993755e-22
-3.642668946e-22
-3.318370851e-22
-3.274462353e-22
-2.887189031e-22
-2.947656617e-22
-2.500087948e-22
-2.659283146e-22
-2.151336277e-22
-2.406514372e-22
-1.835714897e-22
-2.186714612e-22
-1.54845713e-22
-1.997474612e-22
-1.28519068e-22
-1.836633904e-22
-1.041881746e-22
-1.702294297e-22
-8.147814263e-23
-1.592827114e-22
-6.003743067e-23
-1.506876246e-22
-3.95328952e-23
-1.443358606e-22
-1.964499237e-23
-1.401463285e-22
-1.380650433e-22
-2.83941396e-21
-2.019984363e-21
-5.759124427e-21
-8.15462794e-21
-6.964696963e-21
-1.544759108e-20
-4.506335323e-21
-1.854859522e-20
-9.474044179e-22
-1.089531893e-20
1.213535744e-25
-7.408028495e-22
-9.76588037e-19
-7.351384565e-45
2.949029814e-18
1.0307162e-18
-5.96971989e-21
2.815265304e-24
-5.884979333e-21
-3.95752257e-22
-5.723029328e-21
-7.713135745e-22
-5.494067058e-21
-1.1095202e-21
-5.211349648e-21
-1.397745856e-21
-4.889463635e-21
-1.628529701e-21
-4.542815674e-21
-1.799408319e-21
-4.184507263e-21
-1.912139462e-21
-3.825647182e-21
-1.971605426e-21
-3.475060253e-21
-1.984661361e-21
-3.139299065e-21
-1.959110444e-21
-2.822852969e-21
-1.902897484e-21
-2.528461006e-21
-1.823542148e-21
-2.257458483e-21
-1.727789614e-21
-2.010111011e-21
-1.621436072e-21
-1.785910122e-21
-1.509281941e-21
-1.583819434e-21
-1.39517e-21
-1.40247001e-21
-1.282073869e-21
-1.240309085e-21
-1.172211207e-21
-1.095708929e-21
-1.067164037e-21
-9.670433284e-22
-9.67995031e-22
-8.527387703e-22
-8.753534321e-22
-7.513065455e-22
-7.89567593e-22
-6.613608698e-22
-7.107233444e-22
-5.81627085e-22
-6.387287092e-22
-5.109430426e-22
-5.733662223e-22
-4.482559874e-22
-5.143344351e-22
-3.926166265e-22
-4.612802633e-22
-3.431715784e-22
-4.138237568e-22
-2.991550284e-22
-3.71576722e-22
-2.598801433e-22
-3.341564417e-22
-2.247306005e-22
-3.011955442e-22
-1.931524479e-22
-2.723489015e-22
-1.646464102e-22
-2.47298267e-22
-1.387606938e-22
-2.257552331e-22
-1.150842935e-22
-2.074629635e-22
-9.324077879e-23
-1.921970639e-22
-7.288251461e-23
-1.797658708e-22
-5.368526145e-23
-1.700103769e-22
-3.534309339e-23
-1.628039595e-22
-1.756357247e-23
-1.580520395e-22
-1.556917645e-22
-2.144894522e-21
-9.782230723e-22
-4.977186872e-21
-5.934342124e-21
-8.224446749e-21
-1.254926692e-20
-7.72011548e-21
-2.081725858e-20
-3.473961345e-21
-1.740693183e-20
4.131849508e-24
-4.11732241e-21
-1.722449535e-18
1.990665687e-51
1.451475616e-18
-6.175007984e-19
-6.36539492e-21
-2.767999955e-24
-6.260456347e-21
-5.006954117e-22
-6.061172893e-21
-9.706067572e-22
-5.782255434e-21
-1.388452594e-21
-5.442121166e-21
-1.737900052e-21
-5.060351008e-21
-2.010324711e-21
-4.655571181e-21
-2.204217876e-21
-4.244007453e-21
-2.323737743e-21
-3.838742085e-21
-2.376910111e-21
-3.449549018e-21
-2.373898442e-21
-3.083123668e-21
-2.325584429e-21
-2.743531331e-21
-2.242542993e-21
-2.432737432e-21
-2.134393667e-21
-2.151128928e-21
-2.009460086e-21
-1.897976084e-21
-1.87465513e-21
-1.671813042e-21
-1.735515331e-21
-1.470734387e-21
-1.596323023e-21
-1.292615257e-21
-1.460271263e-21
-1.135267227e-21
-1.32964127e-21
-9.965431705e-22
-1.205973765e-21
-8.744033723e-22
-1.090224003e-21
-7.669533619e-22
-9.82895977e-22
-6.724618387e-22
-8.841548671e-22
-5.893651492e-22
-7.939188531e-22
-5.162630927e-22
-7.11932502e-22
-4.519094919e-22
-6.378243223e-22
-3.951999176e-22
-5.711511147e-22
-3.451581806e-22
-5.114315527e-22
-3.009226316e-22
-4.581711439e-22
-2.617329126e-22
-4.10880402e-22
-2.269175215e-22
-3.690877517e-22
-1.958823677e-22
-3.32348409e-22
-1.681003724e-22
-3.002502324e-22
-1.43102093e-22
-2.724173384e-22
-1.20467303e-22
-2.485121022e-22
-9.981743618e-23
-2.282360265e-22
-8.080879116e-23
-2.113298515e-22
-6.312638797e-23
-1.975731917e-22
-4.647837144e-23
-1.867839145e-22
-3.059085934e-23
-1.78817424e-22
-1.520314077e-23
-1.735659693e-22
-1.709580647e-22
-1.766918946e-21
-4.126188935e-22
-4.062925575e-21
-3.963360705e-21
-8.228184436e-21
-9.120609916e-21
-1.215013584e-20
-1.858830524e-20
-6.881060583e-21
-2.761057812e-20
1.390263321e-23
-1.200514683e-20
-2.087289576e-18
-3.25167207e-44
-7.052735182e-18
-2.543484262e-18
-6.863766415e-21
-8.607321893e-24
-6.730254099e-21
-6.342123111e-22
-6.478937152e-21
-1.221933436e-21
-6.131659787e-21
-1.735744897e-21
-5.71453825e-21
-2.155041522e-21
-5.254264902e-21
-2.470622918e-21
-4.775131104e-21
-2.683381411e-21
-4.297230565e-21
-2.801672845e-21
-3.83578476e-21
-2.838395245e-21
-3.401287827e-21
-2.808439401e-21
-3.000130289e-21
-2.726790614e-21
-2.635423592e-21
-2.607302877e-21
-2.307838393e-21
-2.462036499e-21
-2.01635164e-21
-2.301008823e-21
-1.758857686e-21
-2.132215314e-21
-1.532636694e-21
-1.961806689e-21
-1.33469403e-21
-1.794340072e-21
-1.161992967e-21
-1.633050609e-21
-1.011604499e-21
-1.480111791e-21
-8.807959292e-22
-1.336868028e-21
-7.670761745e-22
-1.204032952e-21
-6.682118451e-22
-1.081852862e-21
-5.8222455e-22
-9.702379349e-22
-5.073769431e-22
-8.688653015e-22
-4.421526995e-22
-7.772585044e-22
-3.852338799e-22
-6.94847664e-22
-3.354778853e-22
-6.210142378e-22
-2.918953264e-22
-5.551236873e-22
-2.536295336e-22
-4.965487982e-22
-2.199380401e-22
-4.446858799e-22
-1.901761196e-22
-3.989656147e-22
-1.63782313e-22
-3.588599501e-22
-1.402657915e-22
-3.238861129e-22
-1.191953654e-22
-2.936085797e-22
-1.001899318e-22
-2.676396379e-22
-8.291015998e-23
-2.456390173e-22
-6.705122128e-23
-2.273129552e-22
-5.233638827e-23
-2.124129645e-22
-3.85113425e-23
-2.007345032e-22
-2.53390475e-23
-1.921156929e-22
-1.259505802e-23
-1.864361913e-22
-1.836162926e-22
-1.272003453e-21
-1.003125212e-22
-3.23265907e-21
-2.216207501e-21
-5.669989883e-21
-6.732525582e-21
-1.469432878e-20
-8.6857321e-21
-1.33407559e-20
-3.311357486e-20
2.734893379e-23
-2.681565085e-20
-9.294613218e-19
2.827068926e-42
-6.700369476e-18
-2.115370649e-18
-7.493929506e-21
-1.356145987e-23
-7.317820474e-21
-8.103259286e-22
-6.992645683e-21
-1.547117959e-21
-6.550910408e-21
-2.177495114e-21
-6.030124034e-21
-2.675847834e-21
-5.467065067e-21
-3.033706753e-21
-4.893486916e-21
-3.256989307e-21
-4.334027319e-21
-3.361167014e-21
-3.805903758e-21
-3.366558145e-21
-3.319708245e-21
-3.29467895e-21
-2.880702806e-21
-3.165844714e-21
-2.490207268e-21
-2.997851614e-21
-2.146850672e-21
-2.805450743e-21
-1.847588871e-21
-2.600332624e-21
-1.588471839e-21
-2.391398593e-21
-1.365186249e-21
-2.185162662e-21
-1.173415434e-21
-1.98618529e-21
-1.009060872e-21
-1.797483473e-21
-8.683643058e-22
-1.62089043e-21
-7.479620876e-22
-1.457355958e-21
-6.44895639e-22
-1.307188615e-21
-5.565953067e-22
-1.170245771e-21
-4.808495376e-22
-1.046079498e-21
-4.157672998e-22
-9.340464021e-22
-3.597387694e-22
-8.333888153e-22
-3.113972838e-22
-7.432936935e-22
-2.695842013e-22
-6.62934471e-22
-2.333174212e-22
-5.915000654e-22
-2.017637708e-22
-5.282143326e-22
-1.742151366e-22
-4.72348521e-22
-1.500680428e-22
-4.232286737e-22
-1.288062996e-22
-3.802394504e-22
-1.099863211e-22
-3.42825473e-22
-9.322472336e-23
-3.104910152e-22
-7.818784331e-23
-2.827986424e-22
-6.458285629e-23
-2.593672454e-22
-5.215020853e-23
-2.398697899e-22
-4.065711806e-23
-2.240310164e-22
-2.989193086e-23
-2.116252547e-22
-1.965914768e-23
-2.024744711e-22
-9.774960911e-24
-1.964466316e-22
-1.934544336e-22
-4.96524082e-22
5.448231399e-24
-2.399684903e-21
-7.156721065e-22
-3.526039284e-21
-4.286793814e-21
-1.115482531e-20
-6.044500715e-21
-2.131168215e-20
-1.976080118e-20
3.644853556e-23
-4.38062674e-20
3.644853556e-23
-2.962275365e-40
2.059984054e-19
-9.757840331e-18
-8.29719912e-21
-4.149029472e-23
-8.05439436e-21
-1.053135273e-21
-7.622894904e-21
-1.978627152e-21
-7.049220735e-21
-2.751184229e-21
-6.388012389e-21
-3.337076122e-21
-5.690424799e-21
-3.731319216e-21
-4.997766047e-21
-3.949677811e-21
-4.339525893e-21
-4.019441748e-21
-3.734126035e-21
-3.97199735e-21
-3.190962915e-21
-3.837886117e-21
-2.712783411e-21
-3.644072889e-21
-2.297864818e-21
-3.41282342e-21
-1.941777041e-21
-3.161596181e-21
-1.638687401e-21
-2.903484277e-21
-1.382258706e-21
-2.64789355e-21
-1.166223961e-21
-2.401267806e-21
-9.847227863e-22
-2.167760884e-21
-8.324725803e-22
-1.949811998e-21
-7.048313809e-22
-1.74861372e-21
-5.977940359e-22
-1.564479033e-21
-5.079505599e-22
-1.397121324e-21
-4.324258209e-22
-1.245863106e-21
-3.688126579e-22
-1.109788474e-21
-3.151056517e-22
-9.878522914e-22
-2.696395183e-22
-8.789567499e-22
-2.310340092e-22
-7.820037676e-22
-1.98145918e-22
-6.95929734e-22
-1.700280473e-22
-6.197275555e-22
-1.458945918e-22
-5.524596937e-22
-1.250922147e-22
-4.932649267e-22
-1.070760445e-22
-4.413608308e-22
-9.138984515e-23
-3.960434285e-22
-7.764967752e-23
-3.566850439e-22
-6.553044626e-23
-3.227311057e-22
-5.475481209e-23
-2.936964225e-22
-4.508402538e-23
-2.691612944e-22
-3.631030743e-23
-2.487677158e-22
-2.825046666e-23
-2.322158395e-22
-2.074048752e-23
-2.192608187e-22
-1.363087193e-23
-2.097101021e-22
-6.782545921e-24
-2.034212313e-22
-2.003001694e-22
1.74425525e-23
1.025021685e-24
-7.470339286e-22
4.826192638e-23
-2.113275809e-21
-2.076098316e-21
-6.493243996e-21
-4.870573766e-21
-2.63288444e-20
-6.543268439e-21
1.447268959e-21
-5.991219223e-21
-6.412829898e-17
-6.431191812e-43
-1.859406744e-18
-5.660794354e-16
-9.31521427e-21
-1.405088488e-22
-8.97952875e-21
-1.388825378e-21
-8.395283359e-21
-2.562882282e-21
-7.63508751e-21
-3.511395027e-21
-6.782334002e-21
-4.189849577e-21
-5.90891955e-21
-4.604758545e-21
-5.067686674e-21
-4.790940446e-21
-4.292234025e-21
-4.794928985e-21
-3.600149504e-21
-4.664121228e-21
-2.997260938e-21
-4.440818742e-21
-2.481621187e-21
-4.159761322e-21
-2.046703019e-21
-3.847794813e-21
-1.683712154e-21
-3.524644721e-21
-1.383128889e-21
-3.20412957e-21
-1.135653733e-21
-2.895434982e-21
-9.327292394e-22
-2.604262713e-21
-7.667798696e-22
-2.333784689e-21
-6.312758733e-22
-2.08539433e-21
-5.206952679e-22
-1.859276433e-21
-4.304329462e-22
-1.654827103e-21
-3.566877679e-22
-1.470955754e-21
-2.963459691e-22
-1.306297519e-21
-2.468709912e-22
-1.159359285e-21
-2.062046245e-22
-1.02861756e-21
-1.726812221e-22
-9.125819731e-22
-1.449549438e-22
-8.098346305e-22
-1.219390551e-22
-7.190528144e-22
-1.027558823e-22
-6.390203679e-22
-8.669591529e-23
-5.686315865e-22
-7.318460125e-23
-5.068902897e-22
-6.175550585e-23
-4.529059334e-22
-5.202868945e-23
-4.058880442e-22
-4.369331493e-23
-3.651398421e-22
-3.649366578e-23
-3.300516345e-22
-3.021789506e-23
-3.000943593e-22
-2.468894848e-23
-2.748135234e-22
-1.975720767e-23
-2.538236845e-22
-1.529448367e-23
-2.368035656e-22
-1.118905909e-23
-2.234918478e-22
-7.341531227e-24
-2.136836649e-22
-3.661250485e-24
-2.072278051e-22
-2.04024619e-22
2.171057853e-24
1.034925608e-26
1.839064306e-22
2.502986512e-23
-8.515033041e-22
-3.232511543e-22
-2.091841532e-21
-3.022154179e-21
-2.901164642e-21
-5.060911941e-21
5.303046338e-22
-6.215534818e-21
-1.95453006e-15
-4.238475359e-43
-1.315679348e-17
-1.156306879e-15
-1.05807031e-20
-2.387591027e-23
-1.015288298e-20
-1.816650092e-21
-9.34357264e-21
-3.372202358e-21
-8.313573995e-21
-4.541408625e-21
-7.197416496e-21
-5.306027028e-21
-6.095333666e-21
-5.706866257e-21
-5.071911875e-21
-5.814392003e-21
-4.161637565e-21
-5.705237891e-21
-3.377020589e-21
-5.44877757e-21
-2.716337677e-21
-5.101545721e-21
-2.169753272e-21
-4.70639442e-21
-1.723622008e-21
-4.293979312e-21
-1.363242932e-21
-3.885081483e-21
-1.074462817e-21
-3.492971725e-21
-8.444973334e-22
-3.125466756e-21
-6.622581936e-22
-2.786572281e-21
-5.183904449e-22
-2.477726888e-21
-4.051549672e-22
-2.198708158e-21
-3.162404943e-22
-1.948273029e-21
-2.46554782e-22
-1.724598579e-21
-1.920220747e-22
-1.52557773e-21
-1.49400124e-22
-1.349012101e-21
-1.161218211e-22
-1.192733437e-21
-9.016195326e-23
-1.054676348e-21
-6.992727069e-23
-9.329184945e-22
-5.41670511e-23
-8.256994533e-22
-4.190108379e-23
-7.314259921e-22
-3.236212328e-23
-6.486689868e-22
-2.495016858e-23
-5.761554861e-22
-1.919629506e-23
-5.127582313e-22
-1.473413485e-23
-4.5748412e-22
-1.127744084e-23
-4.094625566e-22
-8.60246362e-24
-3.679342622e-22
-6.534119496e-24
-3.322408774e-22
-4.935133073e-24
-3.01815531e-22
-3.697504195e-24
-2.761744537e-22
-2.735782927e-24
-2.549096526e-22
-1.981742153e-24
-2.376826272e-22
-1.380120599e-24
-2.242190925e-22
-8.85173484e-25
-2.143046654e-22
-4.57817055e-25
-2.077814729e-22
-2.045456436e-22
1.23277405e-25
3.237800423e-28
4.817323485e-23
1.323781762e-24
2.993099429e-22
6.977879549e-23
-1.041206505e-21
-9.303293908e-22
-2.307515592e-21
-3.493788962e-21
2.972636077e-22
-5.879786073e-21
-1.29391746e-15
3.54919589e-41
-1.675634474e-17
-2.918475708e-16
-1.243833427e-20
-2.54546592e-22
-1.170811176e-20
-2.546877191e-21
-1.051268775e-20
-4.56763611e-21
-9.078395499e-21
-5.97571583e-21
-7.598607173e-21
-6.785835311e-21
-6.203241953e-21
-7.102256364e-21
-4.963104241e-21
-7.054559485e-21
-3.905459702e-21
-6.762917032e-21
-3.030002896e-21
-6.324273749e-21
-2.321339614e-21
-5.810253079e-21
-1.757442064e-21
-5.270340671e-21
-1.314790545e-21
-4.736684075e-21
-9.711722761e-22
-4.228757449e-21
-7.069778971e-22
-3.757228155e-21
-5.056100721e-22
-3.326900882e-21
-3.53411707e-22
-2.938841087e-21
-2.393655155e-22
-2.591847544e-21
-1.547107381e-22
-2.2834413e-21
-9.255552142e-23
-2.010510384e-21
-4.752295151e-23
-1.769716928e-21
-1.544561414e-23
-1.557744351e-21
6.888858884e-24
-1.371439222e-21
2.194487273e-23
-1.207885317e-21
3.160469658e-23
-1.064435109e-21
3.72997314e-23
-9.387153848e-22
4.011355107e-23
-8.28617893e-22
4.086228234e-23
-7.32281951e-22
4.01570102e-23
-6.480733903e-22
3.845204869e-23
-5.745624869e-22
3.60821666e-23
-5.105024349e-22
3.329122275e-23
-4.548092202e-22
3.025414332e-23
-4.065433132e-22
2.709375388e-23
-3.648933333e-22
2.38936444e-23
-3.291616844e-22
2.070798297e-23
-2.987520723e-22
1.756898841e-23
-2.73158778e-22
1.449261308e-23
-2.519575414e-22
1.148286385e-23
-2.34797916e-22
8.535095369e-24
-2.213969642e-22
5.638538037e-24
-2.115341785e-22
2.778269766e-24
-2.05047533e-22
-2.018305892e-22
6.026441634e-27
9.833175049e-30
5.544381747e-24
1.178543058e-25
2.386913e-22
1.546934629e-23
-1.283447566e-22
1.571452359e-23
-1.676442558e-21
-1.553010739e-21
4.25547028e-23
-4.268839748e-21
-2.161293849e-16
-1.609371154e-41
-3.57786721e-19
-2.297480158e-16
-1.490708329e-20
-6.00863698e-22
-1.372836664e-20
-3.72559842e-21
-1.192083947e-20
-6.375173025e-21
-9.889034211e-21
-8.007536046e-21
-7.91567474e-21
-8.759214743e-21
-6.156145145e-21
-8.861810851e-21
-4.671946122e-21
-8.538788285e-21
-3.467174377e-21
-7.967723385e-21
-2.516229617e-21
-7.275257888e-21
-1.781587963e-21
-6.544938815e-21
-1.223882878e-21
-5.828094466e-21
-8.069173004e-22
-5.153702907e-21
-4.996670479e-22
-4.536065408e-21
-2.766559881e-22
-3.980301277e-21
-1.175443022e-22
-3.486078881e-21
-6.405794976e-24
-3.050050047e-21
6.905626659e-23
-2.667384081e-21
1.182368491e-22
-2.332700259e-21
1.482545019e-22
-2.040610188e-21
1.644653804e-22
-1.7860136e-21
1.708740857e-22
-1.564242354e-21
1.704559918e-22
-1.371113789e-21
1.654069397e-22
-1.202932146e-21
1.573349551e-22
-1.056462075e-21
1.47406521e-22
-9.288888213e-22
1.364576591e-22
-8.177736665e-22
1.250779874e-22
-7.210095224e-22
1.13674144e-22
-6.367792383e-22
1.025175176e-22
-5.635178387e-22
9.178007622e-23
-4.99879095e-22
8.156118434e-23
-4.447063883e-22
7.190760916e-23
-3.970075901e-22
6.282838262e-23
-3.559335834e-22
5.430578363e-23
-3.207600177e-22
4.630339734e-23
-2.908719047e-22
3.877197625e-23
-2.657506917e-22
3.165365233e-23
-2.449634974e-22
2.488491755e-23
-2.28154235e-22
1.839869081e-23
-2.150363933e-22
1.212571544e-23
-2.053872889e-22
5.995477179e-24
-1.990436383e-22
-1.958983341e-22
2.152355641e-28
1.84662818e-31
8.312919125e-25
1.555547577e-26
3.653256957e-23
1.030431226e-24
2.825667754e-22
7.221943761e-23
-6.715228265e-22
-1.833813555e-22
1.300188597e-23
-1.578961856e-21
-1.302425498e-16
-7.682586516e-42
5.036118955e-18
-2.107973872e-16
-1.841368862e-20
-1.200961751e-21
-1.637769505e-20
-5.761596578e-21
-1.355388066e-20
-9.198997165e-21
-1.064186732e-20
-1.091956434e-20
-8.019386358e-21
-1.138171567e-20
-5.834009706e-21
-1.10472124e-20
-4.101514207e-21
-1.027131357e-20
-2.775126626e-21
-9.29414558e-21
-1.786167281e-21
-8.26425662e-21
-1.064888616e-21
-7.266261569e-21
-5.495629284e-22
-6.343468872e-21
-1.893054835e-22
-5.514013614e-21
5.609867351e-23
-4.781527281e-21
2.175830956e-22
-4.14184777e-21
3.185086431e-22
-3.58707075e-21
3.762870412e-22
-3.107898907e-21
4.037670039e-22
-2.69493853e-21
4.103524012e-22
-2.339364045e-21
4.028744135e-22
-2.033214362e-21
3.862575252e-22
-1.769482516e-21
3.640211174e-22
-1.542095256e-21
3.386538023e-22
-1.345839148e-21
3.118910756e-22
-1.176265313e-21
2.849203958e-22
-1.02959036e-21
2.585322053e-22
-9.026025147e-22
2.332308838e-22
-7.925769939e-22
2.093160921e-22
-6.972019874e-22
1.86942271e-22
-6.145151224e-22
1.661620412e-22
-5.42849601e-22
1.469577408e-22
-4.807889102e-22
1.292642258e-22
-4.271289474e-22
1.129852356e-22
-3.808464661e-22
9.800502146e-23
-3.410728598e-22
8.4196488e-23
-3.070724308e-22
7.142677357e-23
-2.78224423e-22
5.956094994e-23
-2.540082168e-22
4.846434648e-23
-2.339911878e-22
3.800387203e-23
-2.178188281e-22
2.804861113e-23
-2.05206802e-22
1.84699013e-23
-1.959346786e-22
9.141046427e-24
-1.898411406e-22
-1.868205157e-22
2.928039564e-30
6.510288539e-34
8.589666437e-26
8.976231869e-28
3.203701246e-24
5.692305506e-26
1.38637919e-22
1.017145605e-23
4.682855772e-23
1.758304998e-22
2.33641172e-24
-8.279898129e-23
-8.477655491e-17
-7.357386855e-42
3.576511789e-18
-1.965101542e-16
-2.367457007e-20
-2.716344787e-21
-1.981625645e-20
-9.619914791e-21
-1.527673046e-20
-1.37385329e-20
-1.110632281e-20
-1.508998695e-20
-7.686657877e-21
-1.480140057e-20
-5.059311306e-21
-1.367458387e-20
-3.125089203e-21
-1.220556545e-20
-1.745661071e-21
-1.067360833e-20
-7.883890685e-22
-9.221568013e-21
-1.421868265e-22
-7.912507907e-21
2.798739991e-22
-6.765578421e-21
5.432015342e-22
-5.777394418e-21
6.958176142e-22
-4.934201083e-21
7.72406535e-22
-4.21849877e-21
7.977274041e-22
-3.61245795e-21
7.892915083e-22
-3.099533483e-21
7.593812655e-22
-2.665102783e-21
7.165370954e-22
-2.296598273e-21
6.666366079e-22
-1.983396047e-21
6.136708374e-22
-1.71660256e-21
5.602994574e-22
-1.488813196e-21
5.082465447e-22
-1.29387892e-21
4.585820784e-22
-1.126696751e-21
4.11921858e-22
-9.830291154e-22
3.685692791e-22
-8.593518311e-22
3.286156971e-22
-7.527280723e-22
2.920112867e-22
-6.607048455e-22
2.586148712e-22
-5.812284238e-22
2.282287493e-22
-5.125754831e-22
2.006228172e-22
-4.532971057e-22
1.755510478e-22
-4.021732641e-22
1.527625185e-22
-3.581758151e-22
1.320085526e-22
-3.204383967e-22
1.130470974e-22
-2.882319341e-22
9.564514177e-23
-2.609447122e-22
7.957975047e-23
-2.380661862e-22
6.463812704e-23
-2.191738701e-22
5.061699972e-23
-2.039227802e-22
3.732154065e-23
-1.920370242e-22
2.456396737e-23
-1.833032165e-22
1.216193267e-23
-1.775654747e-22
-1.747218157e-22
3.298970465e-34
1.00389535e-35
3.532684992e-27
1.128905131e-29
2.018243105e-25
1.882806152e-27
1.862716056e-23
4.156068469e-25
1.744017956e-22
7.853762032e-23
7.575176088e-26
3.682678077e-24
-4.83516577e-17
-5.540668909e-42
-2.506133324e-17
-8.639648078e-17
-3.170370564e-20
-7.952300752e-21
-2.394098508e-20
-1.738263994e-20
-1.663380837e-20
-2.104571936e-20
-1.082174303e-20
-2.090206725e-20
-6.56232196e-21
-1.906084161e-20
-3.591690426e-21
-1.66452403e-20
-1.59384742e-21
-1.420343825e-20
-2.939368438e-22
-1.197355353e-20
5.2057476e-22
-1.003611901e-20
1.004759236e-21
-8.396736483e-21
1.268126546e-21
-7.02899446e-21
1.386482213e-21
-5.895803359e-21
1.411608971e-21
-4.95938557e-21
1.378530007e-21
-4.185481891e-21
1.310724931e-21
-3.54471921e-21
1.223785007e-21
-3.012664038e-21
1.127938866e-21
-2.569331145e-21
1.029783765e-21
-2.198521577e-21
9.334670996e-22
-1.887161562e-21
8.414909317e-22
-1.624712215e-21
7.552592362e-22
-1.402670829e-21
6.754498919e-22
-1.214162269e-21
6.022673263e-22
-1.053610098e-21
5.356138194e-22
-9.164745932e-22
4.75205297e-22
-7.990452133e-22
4.206491876e-22
-6.982766327e-22
3.714963208e-22
-6.116592567e-22