/*--------------------------------*- C++ -*----------------------------------*\
  =========                 |
  \\      /  F ield         | OpenFOAM: The Open Source CFD Toolbox
   \\    /   O peration     | Website:  https://openfoam.org
    \\  /    A nd           | Version:  6
     \\/     M anipulation  |
\*---------------------------------------------------------------------------*/
FoamFile
{
    version     2.0;
    format      ascii;
    class       volVectorField;
    location    "0.06";
    object      gradT;
}
// * * * * * * * * * * * * * * * * * * * * * * * * * * * * * * * * * * * * * //

dimensions      [0 -1 0 1 0 0 0];

internalField   nonuniform List<vector> 
2500
(
(0 -356.182044 10003.08041)
(0 -795.8863202 9001.689015)
(0 -903.9123428 7533.393136)
(0 -901.559983 5839.808981)
(0 -822.6274691 4164.849067)
(0 -730.9676827 2671.174262)
(0 -664.5081843 1313.037017)
(0 -326.6908417 39.17275196)
(0 -9.207273943 7.671308102)
(0 -1.729027519 2.265577695)
(0 -0.5068415423 0.6332592437)
(0 -0.1398950663 0.1727277392)
(0 -0.03743946674 0.04719894032)
(0 -0.009945166253 0.01322494413)
(0 -0.002679498237 0.003858901831)
(0 -0.0007459139658 0.00117316289)
(0 -0.0002163875542 0.0003659719257)
(0 -6.49661565e-05 0.0001144804556)
(0 -1.980193624e-05 3.514706746e-05)
(0 -5.989417027e-06 1.042810496e-05)
(0 -1.764840203e-06 2.96254479e-06)
(0 -5.010670457e-07 8.019049141e-07)
(0 -1.354782142e-07 2.061584079e-07)
(0 -3.571655594e-08 5.086903422e-08)
(0 -8.140927771e-09 1.157611695e-08)
(0 -2.917557929e-09 3.576361333e-09)
(0 -3.294017017e-09 -1.694065895e-09)
(0 1.129377263e-09 -4.941025526e-09)
(0 2.399926684e-09 -2.305811912e-09)
(0 2.823443158e-10 -6.588034034e-10)
(0 -1.176434649e-09 -7.529181753e-10)
(0 -4.235164736e-10 -2.352869298e-09)
(0 8.940903332e-10 -2.635213614e-09)
(0 -1.082319877e-09 -2.823443158e-09)
(0 -1.364664193e-09 -2.870500543e-09)
(0 1.223492035e-09 -3.341074403e-09)
(0 4.705738596e-11 -1.552893737e-09)
(0 0 -3.058730087e-09)
(0 6.588034034e-10 -1.505836351e-09)
(0 -1.458778965e-09 -3.811648263e-09)
(0 9.411477192e-10 -4.470451666e-09)
(0 1.270549421e-09 -2.588156228e-09)
(0 -1.035262491e-09 -8.470329473e-10)
(0 3.764590877e-10 -1.411721579e-09)
(0 7.529181753e-10 -2.823443158e-10)
(0 4.235164736e-10 -6.117460175e-10)
(0 -1.082319877e-09 -2.352869298e-10)
(0 -6.117460175e-10 -2.541098842e-09)
(0 2.070524982e-09 -9.882051051e-10)
(0 -7.529181753e-10 4.705738596e-11)
(0 -645.2093519 7899.170105)
(0 -1673.800955 7633.05713)
(0 -2257.967691 6843.369939)
(0 -2466.984086 5563.238046)
(0 -2346.00725 4049.737882)
(0 -2120.844367 2646.554893)
(0 -1967.493326 1321.972008)
(0 -978.6748674 40.06271588)
(0 -27.69990032 8.331805171)
(0 -5.309021339 2.589923261)
(0 -1.586008414 0.7651194487)
(0 -0.4461652371 0.223327615)
(0 -0.1220633283 0.06668458184)
(0 -0.03339487228 0.02085973593)
(0 -0.009372282954 0.006854096589)
(0 -0.002747015939 0.002321469834)
(0 -0.0008422948802 0.0007879959743)
(0 -0.0002658587488 0.0002614842001)
(0 -8.425041444e-05 8.342648667e-05)
(0 -2.619510564e-05 2.535621362e-05)
(0 -7.861359841e-06 7.309564933e-06)
(0 -2.255272279e-06 1.996080198e-06)
(0 -6.155106083e-07 5.161254092e-07)
(0 -1.589127924e-07 1.262549665e-07)
(0 -3.915174512e-08 3.035201394e-08)
(0 -1.049379707e-08 5.646886315e-09)
(0 -5.129255069e-09 7.058607894e-10)
(0 -1.788180666e-09 7.058607894e-10)
(0 1.929352824e-09 -2.541098842e-09)
(0 1.317606807e-09 -1.317606807e-09)
(0 -5.646886315e-10 -9.882051051e-10)
(0 -1.411721579e-09 -1.129377263e-09)
(0 -1.411721579e-09 -1.929352824e-09)
(0 8.470329473e-10 -1.599951123e-09)
(0 8.470329473e-10 4.235164736e-10)
(0 4.705738596e-11 4.705738596e-11)
(0 2.823443158e-10 -1.552893737e-09)
(0 0 0)
(0 -1.411721579e-09 -3.011672701e-09)
(0 -1.599951123e-09 -2.305811912e-09)
(0 3.294017017e-10 -1.552893737e-09)
(0 2.44698407e-09 -3.199902245e-09)
(0 2.164639754e-09 -4.705738596e-10)
(0 1.882295438e-10 4.235164736e-10)
(0 9.411477192e-11 -7.999755613e-10)
(0 -3.764590877e-10 -3.294017017e-10)
(0 -8.470329473e-10 -1.082319877e-09)
(0 -1.882295438e-10 -4.705738596e-11)
(0 5.646886315e-10 -7.999755613e-10)
(0 1.694065895e-09 -8.940903332e-10)
(0 -622.2950192 5933.553971)
(0 -1851.686487 6068.693559)
(0 -2973.731427 5906.728683)
(0 -3695.19204 5208.887901)
(0 -3739.310622 3944.589412)
(0 -3458.733557 2647.485207)
(0 -3271.000361 1343.073176)
(0 -1640.331045 41.89360011)
(0 -46.68006656 9.724531466)
(0 -9.295713242 3.29566485)
(0 -2.873437188 1.071358565)
(0 -0.8383299331 0.3511724174)
(0 -0.2399073459 0.120283749)
(0 -0.06977565151 0.04337414874)
(0 -0.02121776433 0.01612457315)
(0 -0.00681201458 0.005984454591)
(0 -0.002276373188 0.002158075672)
(0 -0.0007695356442 0.0007434008661)
(0 -0.0002559299698 0.0002425056269)
(0 -8.210633877e-05 7.465706045e-05)
(0 -2.512487951e-05 2.168159647e-05)
(0 -7.294553627e-06 5.944853683e-06)
(0 -2.005303445e-06 1.541741136e-06)
(0 -5.214899512e-07 3.783413831e-07)
(0 -1.287960654e-07 8.785613958e-08)
(0 -3.25166537e-08 2.023467596e-08)
(0 -8.187985157e-09 4.046935192e-09)
(0 -2.117582368e-09 2.494041456e-09)
(0 2.823443158e-10 -4.705738596e-11)
(0 1.882295438e-09 -4.705738596e-10)
(0 -9.411477192e-10 6.588034034e-10)
(0 -1.411721579e-09 4.705738596e-11)
(0 4.235164736e-10 1.882295438e-10)
(0 1.270549421e-09 9.882051051e-10)
(0 2.823443158e-10 7.529181753e-10)
(0 -7.999755613e-10 1.270549421e-09)
(0 0 2.823443158e-10)
(0 -1.411721579e-09 -2.352869298e-10)
(0 -1.647008509e-09 -1.082319877e-09)
(0 1.411721579e-10 1.788180666e-09)
(0 0 7.999755613e-10)
(0 2.258754526e-09 -9.411477192e-11)
(0 2.588156228e-09 -2.44698407e-09)
(0 4.705738596e-11 -5.176312455e-10)
(0 0 -6.117460175e-10)
(0 1.411721579e-10 -4.705738596e-10)
(0 -7.529181753e-10 1.882295438e-10)
(0 -3.294017017e-10 7.999755613e-10)
(0 1.129377263e-09 7.999755613e-10)
(0 9.882051051e-10 2.44698407e-09)
(0 -510.0697641 4446.159271)
(0 -1700.626243 4682.936794)
(0 -3117.773349 4841.315225)
(0 -4429.123357 4649.297921)
(0 -4907.409944 3802.663656)
(0 -4722.360603 2593.606008)
(0 -4573.084933 1338.543803)
(0 -2312.023512 43.84245272)
(0 -66.29783557 11.91750213)
(0 -13.96219424 4.535121687)
(0 -4.530500847 1.677681293)
(0 -1.397240053 0.6368240468)
(0 -0.429861597 0.2527691102)
(0 -0.1375540481 0.1031128953)
(0 -0.04676197715 0.04182703784)
(0 -0.01671351341 0.01639880524)
(0 -0.006083348558 0.00610685471)
(0 -0.002181428794 0.002142038515)
(0 -0.0007529942201 0.0007056506311)
(0 -0.0002470191361 0.0002183429768)
(0 -7.657356661e-05 6.35530232e-05)
(0 -2.239517467e-05 1.743946724e-05)
(0 -6.182069966e-06 4.523014766e-06)
(0 -1.612703674e-06 1.11107194e-06)
(0 -3.971643375e-07 2.589097375e-07)
(0 -9.430300146e-08 5.839821597e-08)
(0 -2.301106173e-08 1.364664193e-08)
(0 -5.882173245e-09 2.870500543e-09)
(0 -9.882051051e-10 2.682271e-09)
(0 2.023467596e-09 7.999755613e-10)
(0 -4.705738596e-11 5.646886315e-10)
(0 -1.835238052e-09 1.458778965e-09)
(0 -4.235164736e-10 2.823443158e-10)
(0 1.364664193e-09 9.411477192e-11)
(0 1.082319877e-09 -7.999755613e-10)
(0 -3.764590877e-10 1.082319877e-09)
(0 -1.270549421e-09 5.646886315e-10)
(0 -1.270549421e-09 0)
(0 6.117460175e-10 0)
(0 2.352869298e-10 -4.705738596e-11)
(0 -1.552893737e-09 -2.823443158e-10)
(0 -8.940903332e-10 0)
(0 1.788180666e-09 -3.435189175e-09)
(0 2.070524982e-09 -1.694065895e-09)
(0 9.411477192e-11 -4.705738596e-11)
(0 4.705738596e-10 -4.705738596e-11)
(0 3.294017017e-10 -4.705738596e-11)
(0 4.235164736e-10 4.705738596e-11)
(0 2.305811912e-09 4.705738596e-11)
(0 -1.599951123e-09 2.352869298e-10)
(0 -385.5174962 3468.342975)
(0 -1456.530532 3722.055256)
(0 -3007.370299 3996.511349)
(0 -4733.843609 4049.937996)
(0 -5795.002535 3639.102585)
(0 -5922.85341 2471.049619)
(0 -5820.763917 1289.278698)
(0 -2966.957346 45.91538277)
(0 -85.98739759 15.29520332)
(0 -19.53553408 6.750624556)
(0 -6.771734828 2.924932684)
(0 -2.263242116 1.296639489)
(0 -0.7736184974 0.5845860918)
(0 -0.2807177239 0.2603167958)
(0 -0.1079318543 0.1113566598)
(0 -0.04253219766 0.04497981427)
(0 -0.01653313996 0.01701899128)
(0 -0.006170739723 0.006017869335)
(0 -0.002179625508 0.001989802507)
(0 -0.0007242039467 0.0006164728848)
(0 -0.0002260283891 0.0001794272716)
(0 -6.632451501e-05 4.919793233e-05)
(0 -1.83337458e-05 1.274506947e-05)
(0 -4.785689095e-06 3.126492723e-06)
(0 -1.181469789e-06 7.28495392e-07)
(0 -2.777326919e-07 1.608421452e-07)
(0 -6.362158582e-08 3.510480993e-08)
(0 -1.303489591e-08 7.058607894e-09)
(0 -1.835238052e-09 3.576361333e-09)
(0 -2.823443158e-10 2.823443158e-10)
(0 -2.823443158e-10 -9.411477192e-10)
(0 -1.694065895e-09 5.646886315e-10)
(0 -9.411477192e-10 7.529181753e-10)
(0 2.352869298e-10 6.588034034e-10)
(0 1.223492035e-09 1.411721579e-10)
(0 6.117460175e-10 1.882295438e-10)
(0 -1.035262491e-09 2.352869298e-10)
(0 -2.023467596e-09 -8.470329473e-10)
(0 -1.694065895e-09 -7.058607894e-10)
(0 -1.411721579e-10 -1.882295438e-09)
(0 9.411477192e-11 -8.470329473e-10)
(0 -8.940903332e-10 -2.823443158e-10)
(0 8.470329473e-10 4.705738596e-11)
(0 3.435189175e-09 -1.599951123e-09)
(0 1.599951123e-09 2.823443158e-10)
(0 1.411721579e-10 7.999755613e-10)
(0 -5.646886315e-10 4.705738596e-11)
(0 -2.352869298e-10 -3.294017017e-10)
(0 1.317606807e-09 3.764590877e-10)
(0 6.588034034e-10 -1.788180666e-09)
(0 -256.3574833 2868.020101)
(0 -1172.457869 3130.016455)
(0 -2789.890609 3473.345137)
(0 -4786.532121 3664.221603)
(0 -6486.29832 3484.429077)
(0 -7072.18449 2519.523076)
(0 -6998.21917 1283.194362)
(0 -3586.007007 51.96394101)
(0 -105.4625938 21.41905135)
(0 -26.33246488 11.18691792)
(0 -9.984485914 5.70613318)
(0 -3.737586645 2.888591704)
(0 -1.466184291 1.424917626)
(0 -0.6107834801 0.6691594882)
(0 -0.2620989587 0.2945972985)
(0 -0.1110511819 0.1207418477)
(0 -0.04504529354 0.04599686579)
(0 -0.01721061762 0.016307343)
(0 -0.006154390623 0.005394302031)
(0 -0.002057394324 0.001670006253)
(0 -0.0006438485191 0.0004854162297)
(0 -0.0001890774238 0.0001328844111)
(0 -5.225341546e-05 3.436135028e-05)
(0 -1.362932481e-05 8.416495823e-06)
(0 -3.362861973e-06 1.957681371e-06)
(0 -7.876465262e-07 4.331632377e-07)
(0 -1.76794599e-07 9.227953386e-08)
(0 -3.750473661e-08 1.882295438e-08)
(0 -7.717411297e-09 3.435189175e-09)
(0 -2.541098842e-09 1.411721579e-10)
(0 2.823443158e-10 -6.588034034e-10)
(0 -1.882295438e-10 2.823443158e-10)
(0 -3.294017017e-10 1.458778965e-09)
(0 7.529181753e-10 6.117460175e-10)
(0 6.588034034e-10 1.035262491e-09)
(0 -2.352869298e-10 9.411477192e-11)
(0 -2.352869298e-09 1.411721579e-10)
(0 -2.258754526e-09 4.235164736e-10)
(0 -4.235164736e-10 8.940903332e-10)
(0 9.411477192e-11 9.411477192e-11)
(0 0 1.882295438e-10)
(0 4.705738596e-11 9.411477192e-11)
(0 4.235164736e-10 9.411477192e-10)
(0 2.352869298e-09 -7.058607894e-10)
(0 2.494041456e-09 -4.235164736e-10)
(0 1.882295438e-10 7.529181753e-10)
(0 -7.529181753e-10 8.470329473e-10)
(0 7.529181753e-10 2.352869298e-10)
(0 7.999755613e-10 2.494041456e-09)
(0 -1.411721579e-10 2.023467596e-09)
(0 -123.5211431 2529.725411)
(0 -851.2054961 2800.7375)
(0 -2473.165151 3219.916797)
(0 -4722.759669 3561.826531)
(0 -6939.701062 3532.874709)
(0 -8124.088125 2819.187786)
(0 -8288.323052 1450.134561)
(0 -4228.732656 69.08078223)
(0 -126.7644207 34.47919961)
(0 -35.24845224 21.06517513)
(0 -15.07006105 12.26301929)
(0 -6.544457671 6.793467432)
(0 -2.993050713 3.532410809)
(0 -1.411038051 1.705409698)
(0 -0.6563494949 0.7608544485)
(0 -0.2911326304 0.3135871037)
(0 -0.1209676446 0.1196519114)
(0 -0.04677330344 0.04240168122)
(0 -0.01681696225 0.01400582479)
(0 -0.005633089795 0.004327777013)
(0 -0.001763150231 0.001255327298)
(0 -0.0005173793944 0.0003429253827)
(0 -0.000142801661 8.849070843e-05)
(0 -3.718931095e-05 2.163096272e-05)
(0 -9.164755317e-06 5.022011287e-06)
(0 -2.143134529e-06 1.108624956e-06)
(0 -4.779618692e-07 2.339222656e-07)
(0 -1.018792406e-07 4.72456155e-08)
(0 -2.051702028e-08 8.752673788e-09)
(0 -4.376336894e-09 2.44698407e-09)
(0 -2.352869298e-10 2.352869298e-10)
(0 3.764590877e-10 -7.999755613e-10)
(0 -5.176312455e-10 2.823443158e-10)
(0 -1.882295438e-10 -1.882295438e-10)
(0 7.058607894e-10 9.411477192e-11)
(0 -2.823443158e-10 -2.823443158e-10)
(0 -7.058607894e-10 3.764590877e-10)
(0 -1.317606807e-09 1.835238052e-09)
(0 -1.97641021e-09 1.458778965e-09)
(0 -8.940903332e-10 -9.411477192e-11)
(0 9.411477192e-11 -1.882295438e-10)
(0 -1.411721579e-10 0)
(0 1.411721579e-10 -1.035262491e-09)
(0 2.117582368e-09 -4.705738596e-11)
(0 3.011672701e-09 -8.470329473e-10)
(0 1.411721579e-09 3.294017017e-10)
(0 -1.176434649e-09 1.035262491e-09)
(0 1.458778965e-09 2.352869298e-10)
(0 3.105787473e-09 1.035262491e-09)
(0 -3.858705649e-09 3.529303947e-09)
(0 14.65460535 2373.534334)
(0 -482.266483 2656.834124)
(0 -2028.801577 3172.558478)
(0 -4473.574208 3711.484309)
(0 -7228.937066 3943.067561)
(0 -9154.924638 3389.022273)
(0 -9748.326173 1845.812333)
(0 -5001.662369 108.433747)
(0 -153.4782009 64.45753468)
(0 -48.54864521 44.17944265)
(0 -24.25619361 27.9485938)
(0 -12.46819513 16.26563453)
(0 -6.554242025 8.675864659)
(0 -3.38233984 4.237185615)
(0 -1.653921553 1.898171982)
(0 -0.7522537191 0.7826199266)
(0 -0.3162307159 0.2981854191)
(0 -0.1228567043 0.1054318757)
(0 -0.04422829483 0.03473660974)
(0 -0.01480789177 0.01070560462)
(0 -0.004628700243 0.003097432529)
(0 -0.001355913919 0.0008441054132)
(0 -0.0003735479295 0.000217328749)
(0 -9.709802196e-05 5.301174523e-05)
(0 -2.388519974e-05 1.228197774e-05)
(0 -5.575782605e-06 2.707870218e-06)
(0 -1.238220997e-06 5.701472883e-07)
(0 -2.625802136e-07 1.152435382e-07)
(0 -5.246898534e-08 2.188168447e-08)
(0 -1.110554309e-08 3.811648263e-09)
(0 -2.917557929e-09 -1.882295438e-10)
(0 -1.411721579e-10 1.411721579e-10)
(0 2.823443158e-10 -1.270549421e-09)
(0 5.646886315e-10 -8.940903332e-10)
(0 5.176312455e-10 -2.823443158e-10)
(0 4.705738596e-11 9.411477192e-11)
(0 -1.882295438e-10 -1.882295438e-10)
(0 -1.223492035e-09 -1.882295438e-10)
(0 -2.352869298e-09 3.764590877e-10)
(0 -1.505836351e-09 1.411721579e-10)
(0 1.411721579e-10 -9.411477192e-11)
(0 -7.999755613e-10 -3.294017017e-10)
(0 3.294017017e-10 -9.882051051e-10)
(0 2.494041456e-09 -7.529181753e-10)
(0 2.870500543e-09 -7.999755613e-10)
(0 2.117582368e-09 4.705738596e-11)
(0 -8.470329473e-10 9.411477192e-11)
(0 7.529181753e-10 1.176434649e-09)
(0 4.141049964e-09 -6.588034034e-10)
(0 -4.752795982e-09 -8.470329473e-10)
(0 159.7786473 2333.115957)
(0 -52.18135223 2623.246648)
(0 -1418.514965 3248.91561)
(0 -3952.250586 4023.73405)
(0 -7262.163099 4600.485388)
(0 -10221.34335 4330.547072)
(0 -11568.91158 2580.162984)
(0 -6010.087454 195.4106895)
(0 -191.018725 134.2210399)
(0 -71.75739313 98.38342416)
(0 -42.98386917 64.87491054)
(0 -25.81718681 38.56498768)
(0 -15.02149962 20.75091945)
(0 -8.188730728 10.15551865)
(0 -4.110915184 4.543933778)
(0 -1.891119194 1.868437911)
(0 -0.7981556954 0.7095860619)
(0 -0.3102221127 0.2500557353)
(0 -0.1115432333 0.08211926783)
(0 -0.03727226719 0.0252317098)
(0 -0.01162464944 0.007279687022)
(0 -0.003397483174 0.001978700352)
(0 -0.0009338952348 0.0005082341209)
(0 -0.0002422360822 0.0001237004093)
(0 -5.946867739e-05 2.860180859e-05)
(0 -1.385491792e-05 6.298160537e-06)
(0 -3.070635606e-06 1.323112521e-06)
(0 -6.501448444e-07 2.663918619e-07)
(0 -1.319489102e-07 5.129255069e-08)
(0 -2.644625091e-08 8.140927771e-09)
(0 -3.858705649e-09 8.470329473e-10)
(0 -6.117460175e-10 7.529181753e-10)
(0 -1.694065895e-09 -9.882051051e-10)
(0 7.529181753e-10 -1.788180666e-09)
(0 1.788180666e-09 -1.788180666e-09)
(0 -1.882295438e-10 -8.470329473e-10)
(0 -1.035262491e-09 -1.082319877e-09)
(0 -6.588034034e-10 -1.035262491e-09)
(0 -1.694065895e-09 2.352869298e-10)
(0 -1.364664193e-09 1.035262491e-09)
(0 -3.764590877e-10 3.764590877e-10)
(0 -1.035262491e-09 0)
(0 -3.294017017e-10 1.694065895e-09)
(0 2.258754526e-09 1.223492035e-09)
(0 3.811648263e-09 7.529181753e-10)
(0 2.399926684e-09 -7.529181753e-10)
(0 0 -7.058607894e-10)
(0 6.117460175e-10 6.117460175e-10)
(0 1.035262491e-09 6.117460175e-10)
(0 -2.258754526e-09 -2.352869298e-09)
(0 304.7852964 2358.484262)
(0 433.5331704 2621.10456)
(0 -628.314175 3336.295574)
(0 -3122.004431 4359.960299)
(0 -6922.124044 5322.758036)
(0 -11175.24704 5498.667699)
(0 -13883.46256 3746.893748)
(0 -7447.604313 383.2068244)
(0 -250.5054663 294.0987698)
(0 -117.8947745 222.5165949)
(0 -84.07463009 148.9265542)
(0 -56.59218622 88.93931785)
(0 -34.96371105 47.81665638)
(0 -19.58932552 23.32292383)
(0 -9.94100229 10.39037328)
(0 -4.586601435 4.253193571)
(0 -1.934612891 1.608252605)
(0 -0.7503234984 0.5644651668)
(0 -0.2690523204 0.1846938951)
(0 -0.08964747248 0.05656058195)
(0 -0.0278817096 0.01626971196)
(0 -0.008127366915 0.004410341408)
(0 -0.002228547919 0.001130031502)
(0 -0.0005767302872 0.0002744265812)
(0 -0.0001412874485 6.332503017e-05)
(0 -3.285447867e-05 1.391731601e-05)
(0 -7.269989672e-06 2.918169675e-06)
(0 -1.534447241e-06 5.854879961e-07)
(0 -3.107199195e-07 1.119965786e-07)
(0 -6.150400345e-08 1.915235609e-08)
(0 -1.03996823e-08 2.917557929e-09)
(0 -1.929352824e-09 -7.529181753e-10)
(0 -2.21169714e-09 -1.223492035e-09)
(0 -2.823443158e-10 -7.999755613e-10)
(0 1.458778965e-09 -2.21169714e-09)
(0 7.058607894e-10 -1.411721579e-09)
(0 -3.294017017e-10 -3.764590877e-10)
(0 9.411477192e-11 -3.764590877e-10)
(0 -3.764590877e-10 1.411721579e-10)
(0 -1.317606807e-09 5.646886315e-10)
(0 -8.940903332e-10 -4.705738596e-11)
(0 5.646886315e-10 4.705738596e-10)
(0 1.599951123e-09 2.44698407e-09)
(0 1.505836351e-09 2.070524982e-09)
(0 9.882051051e-10 2.023467596e-09)
(0 5.646886315e-10 -5.646886315e-10)
(0 4.705738596e-10 -5.176312455e-10)
(0 2.117582368e-09 -1.882295438e-10)
(0 1.176434649e-09 2.023467596e-09)
(0 -3.011672701e-09 8.940903332e-10)
(0 422.3989459 2432.091116)
(0 925.6299599 2605.217682)
(0 320.3407729 3326.458635)
(0 -1965.788124 4584.490917)
(0 -6123.455699 5970.057764)
(0 -11797.20764 6687.838866)
(0 -16684.37245 5257.82601)
(0 -9462.882432 771.5254758)
(0 -351.7089545 650.5837722)
(0 -216.9296087 496.6824279)
(0 -176.5611463 332.117718)
(0 -126.9270847 197.3630418)
(0 -80.63789364 105.4337234)
(0 -45.61501383 51.08880818)
(0 -23.18064545 22.61897318)
(0 -10.67323987 9.206702491)
(0 -4.4868841 3.463835434)
(0 -1.733780823 1.210338292)
(0 -0.6194478182 0.3944707411)
(0 -0.2056964502 0.1203830488)
(0 -0.06377489003 0.03452146092)
(0 -0.01853716363 0.009332177403)
(0 -0.005069810156 0.002385202993)
(0 -0.001308942507 0.0005779486029)
(0 -0.0003199779425 0.0001330930165)
(0 -7.426182547e-05 2.919440225e-05)
(0 -1.640236951e-05 6.112283862e-06)
(0 -3.456317941e-06 1.22339792e-06)
(0 -6.983316076e-07 2.338281508e-07)
(0 -1.354311568e-07 4.206930305e-08)
(0 -2.376397991e-08 7.529181753e-09)
(0 -4.799853368e-09 1.882295438e-10)
(0 -1.74112328e-09 -1.364664193e-09)
(0 -2.352869298e-10 2.823443158e-10)
(0 1.223492035e-09 9.411477192e-10)
(0 1.599951123e-09 -1.411721579e-10)
(0 0 4.705738596e-11)
(0 -1.411721579e-10 2.352869298e-10)
(0 -6.588034034e-10 4.705738596e-11)
(0 -1.694065895e-09 -7.058607894e-10)
(0 -4.705738596e-10 -2.352869298e-10)
(0 1.505836351e-09 0)
(0 1.270549421e-09 4.705738596e-10)
(0 1.882295438e-09 9.411477192e-11)
(0 1.176434649e-09 6.117460175e-10)
(0 -2.352869298e-10 2.352869298e-10)
(0 3.294017017e-10 1.411721579e-10)
(0 3.294017017e-09 1.223492035e-09)
(0 2.117582368e-09 1.317606807e-09)
(0 -5.270427227e-09 7.529181753e-10)
(0 477.9118618 2546.324091)
(0 1327.900689 2620.083475)
(0 1350.95906 3176.412095)
(0 -478.4053021 4610.80905)
(0 -4818.776095 6480.798578)
(0 -11887.4788 7873.449592)
(0 -19799.77595 7049.354144)
(0 -12054.84655 1581.156095)
(0 -525.3485142 1420.348166)
(0 -436.3608287 1076.311762)
(0 -383.3940162 711.9410713)
(0 -283.2761809 418.5337129)
(0 -181.2379446 221.40624)
(0 -102.4040757 106.3675223)
(0 -51.82310798 46.74548567)
(0 -23.74173918 18.90642079)
(0 -9.930977091 7.074415493)
(0 -3.819688191 2.46034201)
(0 -1.359007564 0.7986036036)
(0 -0.4495967528 0.2428485463)
(0 -0.138932581 0.06942255147)
(0 -0.04026362475 0.01871508337)
(0 -0.01098277672 0.004771577102)
(0 -0.00282884031 0.001153622546)
(0 -0.0006900416021 0.0002651296416)
(0 -0.0001598352583 5.805314416e-05)
(0 -3.5240994e-05 1.213511163e-05)
(0 -7.412902953e-06 2.426608222e-06)
(0 -1.492001479e-06 4.654446045e-07)
(0 -2.879441447e-07 8.700910664e-08)
(0 -5.223369841e-08 1.764651973e-08)
(0 -1.082319877e-08 3.011672701e-09)
(0 -2.164639754e-09 1.176434649e-09)
(0 2.164639754e-09 1.599951123e-09)
(0 9.411477192e-10 1.458778965e-09)
(0 -1.411721579e-10 -2.352869298e-10)
(0 -4.705738596e-11 -2.352869298e-10)
(0 1.411721579e-10 -2.352869298e-10)
(0 -1.223492035e-09 4.705738596e-11)
(0 -1.599951123e-09 -6.117460175e-10)
(0 -2.352869298e-10 4.705738596e-11)
(0 1.223492035e-09 -2.823443158e-10)
(0 1.694065895e-09 -5.646886315e-10)
(0 1.647008509e-09 1.317606807e-09)
(0 1.176434649e-09 -1.411721579e-10)
(0 1.411721579e-10 4.705738596e-10)
(0 1.458778965e-09 -3.764590877e-10)
(0 3.246959631e-09 1.176434649e-09)
(0 6.588034034e-10 -4.705738596e-11)
(0 -5.035140298e-09 1.035262491e-09)
(0 496.1583302 2722.603217)
(0 1555.717964 2740.880155)
(0 2311.066347 3059.697216)
(0 1338.598358 4434.043435)
(0 -2860.815156 6865.092626)
(0 -11228.65208 9218.230458)
(0 -22976.66595 9374.318187)
(0 -15091.88841 3250.260558)
(0 -856.5532878 3016.400635)
(0 -925.3367031 2241.153324)
(0 -834.3391952 1456.719828)
(0 -617.461916 843.9694243)
(0 -392.8040842 441.1414233)
(0 -220.2757682 209.8523475)
(0 -110.641747 91.47515721)
(0 -50.34431005 36.74708543)
(0 -20.93296288 13.67180094)
(0 -8.009592713 4.731832065)
(0 -2.836941282 1.52956126)
(0 -0.9348775024 0.4634661099)
(0 -0.287908353 0.1320776847)
(0 -0.08318813805 0.03550836522)
(0 -0.02263127103 0.00903121055)
(0 -0.005815389873 0.002178737865)
(0 -0.001415547344 0.0004997477448)
(0 -0.0003272563555 0.0001092325689)
(0 -7.202885839e-05 2.279784472e-05)
(0 -1.512598497e-05 4.552378575e-06)
(0 -3.037930723e-06 8.711733863e-07)
(0 -5.83276299e-07 1.615009486e-07)
(0 -1.077143565e-07 3.044612872e-08)
(0 -2.126993845e-08 5.599828929e-09)
(0 -3.199902245e-09 2.494041456e-09)
(0 4.705738596e-11 6.588034034e-10)
(0 -5.646886315e-10 -2.352869298e-10)
(0 -4.705738596e-11 -9.411477192e-11)
(0 0 0)
(0 1.411721579e-10 -1.882295438e-10)
(0 -1.082319877e-09 -4.705738596e-11)
(0 -1.647008509e-09 -2.823443158e-10)
(0 -1.411721579e-10 -9.411477192e-11)
(0 8.470329473e-10 4.705738596e-11)
(0 2.917557929e-09 -8.940903332e-10)
(0 2.258754526e-09 -9.411477192e-11)
(0 2.823443158e-10 1.882295438e-10)
(0 -4.705738596e-10 9.411477192e-11)
(0 1.035262491e-09 -5.176312455e-10)
(0 3.623418719e-09 -4.705738596e-10)
(0 2.023467596e-09 -3.294017017e-10)
(0 -6.258632332e-09 1.411721579e-10)
(0 496.1887991 2977.512927)
(0 1664.994688 3007.400915)
(0 3044.122341 3230.332784)
(0 3326.990108 4208.694328)
(0 -34.58907264 7134.441987)
(0 -9378.253235 10818.24161)
(0 -25767.74585 12686.66288)
(0 -18412.7641 6558.826661)
(0 -1534.455747 6160.581338)
(0 -1996.041636 4449.28041)
(0 -1780.577916 2829.163911)
(0 -1298.854585 1611.417851)
(0 -815.3550214 831.0964416)
(0 -452.0703418 391.1716504)
(0 -224.92837 169.0560578)
(0 -101.5450955 67.43809326)
(0 -41.94623046 24.94522205)
(0 -15.96192787 8.591694753)
(0 -5.627373518 2.76583368)
(0 -1.847080328 0.8351085177)
(0 -0.5668903257 0.2372607665)
(0 -0.1633100988 0.0636159002)
(0 -0.04431240407 0.01614195643)
(0 -0.01136030312 0.003886003309)
(0 -0.002759546945 0.0008896753151)
(0 -0.0006367851584 0.0001941305871)
(0 -0.0001399212784 4.045490531e-05)
(0 -2.933957428e-05 8.065212437e-06)
(0 -5.882832048e-06 1.539811783e-06)
(0 -1.128577287e-06 2.827678322e-07)
(0 -2.081818755e-07 4.950437003e-08)
(0 -3.882234342e-08 9.08207549e-09)
(0 -7.058607894e-09 1.176434649e-09)
(0 -6.117460175e-10 0)
(0 1.882295438e-10 -4.705738596e-10)
(0 4.705738596e-11 0)
(0 -9.411477192e-11 4.705738596e-11)
(0 9.411477192e-11 0)
(0 -1.317606807e-09 -3.764590877e-10)
(0 -1.647008509e-09 -2.823443158e-10)
(0 9.411477192e-11 0)
(0 3.764590877e-10 0)
(0 1.647008509e-09 -8.940903332e-10)
(0 2.729328386e-09 -2.635213614e-09)
(0 1.317606807e-09 -8.470329473e-10)
(0 -5.646886315e-10 -2.352869298e-10)
(0 9.411477192e-10 0)
(0 3.435189175e-09 4.705738596e-11)
(0 1.223492035e-09 -1.882295438e-10)
(0 -4.846910754e-09 -4.705738596e-11)
(0 526.0463181 3279.46309)
(0 1808.537821 3369.377571)
(0 3512.35976 3647.956591)
(0 5242.707562 4459.444893)
(0 3748.732125 7211.942246)
(0 -5676.431183 12605.22575)
(0 -27236.0809 17326.98533)
(0 -21617.96995 12744.58424)
(0 -2966.099539 11977.88059)
(0 -4256.75413 8363.418503)
(0 -3672.201754 5188.66773)
(0 -2615.529386 2901.337243)
(0 -1613.050285 1475.42008)
(0 -882.3161519 686.8378105)
(0 -434.3753041 294.256046)
(0 -194.4551458 116.5575871)
(0 -79.77936139 42.8663993)
(0 -30.18898109 14.69357508)
(0 -10.59352752 4.711115639)
(0 -3.463450416 1.417586158)
(0 -1.05940097 0.4015579176)
(0 -0.3043069482 0.1073915689)
(0 -0.08236116783 0.02718806994)
(0 -0.02106767108 0.006532122001)
(0 -0.005107420019 0.001492807949)
(0 -0.001176476718 0.0003252090298)
(0 -0.0002580942801 6.767242677e-05)
(0 -5.404107849e-05 1.347516481e-05)
(0 -1.082046944e-05 2.572062602e-06)
(0 -2.073489597e-06 4.7038563e-07)
(0 -3.814001132e-07 8.258571236e-08)
(0 -6.959787383e-08 1.519953566e-08)
(0 -1.228197774e-08 3.717533491e-09)
(0 -1.599951123e-09 7.529181753e-10)
(0 -6.117460175e-10 -2.352869298e-10)
(0 5.176312455e-10 2.352869298e-10)
(0 0 0)
(0 -3.294017017e-10 0)
(0 -1.364664193e-09 -7.058607894e-10)
(0 -1.223492035e-09 0)
(0 1.411721579e-10 0)
(0 0 4.705738596e-11)
(0 1.882295438e-10 -4.235164736e-10)
(0 2.305811912e-09 -1.458778965e-09)
(0 2.729328386e-09 -1.458778965e-09)
(0 4.235164736e-10 -2.352869298e-10)
(0 1.223492035e-09 4.705738596e-11)
(0 3.435189175e-09 0)
(0 2.023467596e-09 0)
(0 -6.070402789e-09 1.364664193e-09)
(0 586.1032795 3602.560563)
(0 2033.488188 3745.242649)
(0 4134.189664 4132.518081)
(0 6890.975763 5045.464335)
(0 8111.191784 7306.35039)
(0 736.7898476 14228.57691)
(0 -25628.38735 23278.29761)
(0 -23761.86885 23400.16393)
(0 -5915.621488 21958.43093)
(0 -8785.254492 14786.63654)
(0 -7242.659176 8940.418895)
(0 -5012.102234 4905.445713)
(0 -3029.854454 2459.213587)
(0 -1633.234376 1132.29103)
(0 -795.2085934 480.9249289)
(0 -352.9347421 189.1876838)
(0 -143.8102425 69.18817571)
(0 -54.11721152 23.60650321)
(0 -18.90336244 7.539560315)
(0 -6.15663805 2.2612394)
(0 -1.877084915 0.6387386134)
(0 -0.5376799465 0.1704062733)
(0 -0.1451718509 0.04304925749)
(0 -0.03705556511 0.01032335621)
(0 -0.008966459869 0.002355258307)
(0 -0.00206192068 0.0005123174785)
(0 -0.0004516551905 0.0001064596654)
(0 -9.443993845e-05 2.117384727e-05)
(0 -1.888761123e-05 4.03851192e-06)
(0 -3.618054177e-06 7.3861273e-07)
(0 -6.634150272e-07 1.295489835e-07)
(0 -1.176434649e-07 2.206991401e-08)
(0 -2.150522538e-08 5.835115859e-09)
(0 -4.564566438e-09 1.082319877e-09)
(0 -2.823443158e-10 4.235164736e-10)
(0 2.823443158e-10 2.823443158e-10)
(0 -3.764590877e-10 1.458778965e-09)
(0 -6.588034034e-10 1.411721579e-09)
(0 -1.364664193e-09 0)
(0 -8.940903332e-10 -1.270549421e-09)
(0 1.882295438e-10 -9.411477192e-11)
(0 0 -7.529181753e-10)
(0 4.705738596e-11 0)
(0 1.788180666e-09 0)
(0 2.44698407e-09 -1.270549421e-09)
(0 8.940903332e-10 -7.058607894e-10)
(0 1.270549421e-09 -4.705738596e-11)
(0 3.388131789e-09 -7.529181753e-10)
(0 2.541098842e-09 -9.411477192e-11)
(0 -6.164517561e-09 -4.705738596e-11)
(0 668.7284037 3930.446891)
(0 2338.495338 4122.738382)
(0 4812.581446 4649.167764)
(0 8416.539871 5744.424993)
(0 12931.8447 8061.403953)
(0 10295.51603 14899.7641)
(0 -18064.49388 29856.81625)
(0 -22937.83663 39938.88182)
(0 -11579.62693 37617.65616)
(0 -17274.76616 24429.65153)
(0 -13553.39258 14397.98069)
(0 -9096.734693 7753.921841)
(0 -5386.204968 3833.334591)
(0 -2860.60481 1746.231021)
(0 -1377.47865 735.5361365)
(0 -606.191899 287.4395658)
(0 -245.360542 104.5597614)
(0 -91.83759648 35.51891999)
(0 -31.93879133 11.30285916)
(0 -10.36427212 3.379485886)
(0 -3.150234097 0.9521029043)
(0 -0.8999963041 0.2534300595)
(0 -0.2424440849 0.06389620806)
(0 -0.06176167031 0.01529568953)
(0 -0.01491845875 0.003484247629)
(0 -0.003425275313 0.0007568363145)
(0 -0.0007492378642 0.0001570711545)
(0 -0.000156462279 3.120267031e-05)
(0 -3.125565693e-05 5.943394904e-06)
(0 -5.982546649e-06 1.088296165e-06)
(0 -1.097848814e-06 1.906765279e-07)
(0 -1.934058563e-07 3.152844859e-08)
(0 -3.326957187e-08 5.458656771e-09)
(0 -7.011550508e-09 1.223492035e-09)
(0 -1.411721579e-09 -9.411477192e-11)
(0 1.552893737e-09 -5.176312455e-10)
(0 1.129377263e-09 1.694065895e-09)
(0 -1.694065895e-09 1.929352824e-09)
(0 -4.093992578e-09 7.058607894e-10)
(0 -1.317606807e-09 -1.364664193e-09)
(0 6.117460175e-10 -1.411721579e-10)
(0 9.411477192e-11 -9.411477192e-11)
(0 1.035262491e-09 -1.411721579e-10)
(0 9.882051051e-10 4.705738596e-11)
(0 2.070524982e-09 -8.940903332e-10)
(0 1.647008509e-09 -9.411477192e-11)
(0 1.176434649e-09 -1.411721579e-10)
(0 3.341074403e-09 -4.705738596e-11)
(0 2.729328386e-09 -1.505836351e-09)
(0 -5.929230631e-09 -9.882051051e-10)
(0 778.3947708 4231.876427)
(0 2752.209061 4482.54362)
(0 5755.876275 5177.302621)
(0 10303.21195 6663.424988)
(0 17266.53089 9527.166162)
(0 22532.20214 15937.66043)
(0 -589.26963 35507.48708)
(0 -16001.02893 62586.64644)
(0 -21424.85178 59723.66621)
(0 -32004.92996 37470.97312)
(0 -23918.38886 21552.13985)
(0 -15576.74833 11402.4661)
(0 -9037.545275 5562.925606)
(0 -4731.032831 2508.699995)
(0 -2254.000048 1048.457158)
(0 -983.9111172 407.1971018)
(0 -395.7308883 147.3874035)
(0 -147.3741138 49.86414717)
(0 -51.04279655 15.81434265)
(0 -16.5073943 4.714989107)
(0 -5.003140742 1.325146341)
(0 -1.425886643 0.3519921355)
(0 -0.3833062208 0.08858521543)
(0 -0.09746752554 0.02117195999)
(0 -0.02350531313 0.00481597744)
(0 -0.005389097249 0.001044779753)
(0 -0.001177288741 0.0002165814306)
(0 -0.000245567651 4.297774588e-05)
(0 -4.900198538e-05 8.178150163e-06)
(0 -9.370866668e-06 1.49487198e-06)
(0 -1.720135686e-06 2.622978693e-07)
(0 -3.028142786e-07 4.39045411e-08)
(0 -5.181018194e-08 7.293894824e-09)
(0 -1.011733798e-08 1.270549421e-09)