/*--------------------------------*- C++ -*----------------------------------*\
  =========                 |
  \\      /  F ield         | OpenFOAM: The Open Source CFD Toolbox
   \\    /   O peration     | Website:  https://openfoam.org
    \\  /    A nd           | Version:  6
     \\/     M anipulation  |
\*---------------------------------------------------------------------------*/
FoamFile
{
    version     2.0;
    format      ascii;
    class       volVectorField;
    location    "0.06";
    object      Marangoni;
}
// * * * * * * * * * * * * * * * * * * * * * * * * * * * * * * * * * * * * * //

dimensions      [1 -2 -2 0 0 0 0];

internalField   nonuniform List<vector> 
2500
(
(-0 1.660127851e-12 -4.67023765e-11)
(-0 1.838289432e-12 -2.083074268e-11)
(-0 6.491746956e-13 -5.420534896e-12)
(-0 1.434245037e-14 -9.30420659e-14)
(-0 8.947449979e-18 -4.534578684e-17)
(-0 7.90144529e-18 -2.888391388e-17)
(-0 6.466847831e-08 -1.278510666e-07)
(-0 2.487313236e-06 -3.257468496)
(-0 7.034432362e-08 -0.6371636046)
(-0 1.67570533e-10 -2.195228215e-10)
(-0 5.517312837e-16 -6.889664053e-16)
(-0 1.549242947e-16 -1.912179244e-16)
(-0 7.399633525e-17 -9.326608654e-17)
(-0 1.846353233e-17 -2.454997142e-17)
(-0 6.629073486e-18 -9.546489265e-18)
(-0 1.276436421e-18 -2.00749242e-18)
(-0 5.151529309e-19 -8.712047303e-19)
(-0 1.13959796e-19 -2.007875571e-19)
(-0 4.862931234e-20 -8.629564883e-20)
(-0 1.373884613e-20 -2.391439265e-20)
(-0 5.553730806e-21 -9.320149995e-21)
(-0 1.383945335e-21 -2.213998271e-21)
(-0 2.950073597e-22 -4.484978928e-22)
(-0 4.417377159e-23 -6.30549709e-23)
(-0 1.585658101e-23 -2.271849326e-23)
(-0 3.139986115e-24 -3.849015238e-24)
(-0 3.178727347e-24 1.634774064e-24)
(-0 -1.536238316e-24 6.721042634e-24)
(-0 -3.211616958e-24 3.085671195e-24)
(-0 -7.170461281e-25 1.673107632e-24)
(-0 2.545508652e-24 1.629125537e-24)
(-0 1.157322184e-24 6.429567687e-24)
(-0 -3.101669982e-24 8.684675948e-24)
(-0 1.079518817e-24 2.698797042e-24)
(-0 0 0)
(-0 -0 0)
(-0 -0 0)
(-0 -0 0)
(-0 -0 0)
(-0 0 0)
(-0 -0 0)
(-0 -0 0)
(-0 0 0)
(-0 -0 0)
(-0 -0 0)
(-0 -0 0)
(-0 0 0)
(-0 0 0)
(-0 -0 0)
(-0 0 -0)
(-0 4.904723297e-12 -6.006253858e-11)
(-0 1.417314565e-11 -6.469170392e-11)
(-0 1.335081624e-11 -4.05258929e-11)
(-0 5.507551655e-12 -1.244024915e-11)
(-0 4.02179612e-14 -6.949831448e-14)
(-0 1.983572703e-17 -2.476172257e-17)
(-0 1.331191933e-07 -8.948753476e-08)
(-0 7.453131278e-06 -3.332416321)
(-0 2.113945156e-07 -0.6922329551)
(-0 3.603548922e-10 -1.757421721e-10)
(-0 2.87926377e-15 -1.388552729e-15)
(-0 7.022782945e-16 -3.514851307e-16)
(-0 5.259206991e-16 -2.873344362e-16)
(-0 1.288996308e-16 -8.053116075e-17)
(-0 5.525598821e-17 -4.041952815e-17)
(-0 1.796696798e-17 -1.518693419e-17)
(-0 4.372882306e-18 -4.091499097e-18)
(-0 7.498253585e-19 -7.37505196e-19)
(-0 3.40674982e-19 -3.373227622e-19)
(-0 1.261930469e-19 -1.221368703e-19)
(-0 4.54598356e-20 -4.226141801e-20)
(-0 1.473706141e-20 -1.304086055e-20)
(-0 3.787244022e-21 -3.175099341e-21)
(-0 4.936953004e-22 -3.922732739e-22)
(-0 1.199058585e-22 -9.272719721e-23)
(-0 3.229949627e-23 -1.709973332e-23)
(-0 1.139716829e-23 -1.568417655e-24)
(-0 5.104484222e-24 -2.014927982e-24)
(-0 -7.521582334e-24 9.906474293e-24)
(-0 -5.50257329e-24 5.50257329e-24)
(-0 1.586475234e-24 2.776331659e-24)
(-0 8.312420362e-24 6.64993629e-24)
(-0 8.77861112e-24 1.19974352e-23)
(-0 -3.182528888e-24 6.011443455e-24)
(-0 -0 -0)
(-0 -0 -0)
(-0 -0 0)
(-0 -0 -0)
(-0 0 0)
(-0 0 0)
(-0 -0 0)
(-0 -0 0)
(-0 -0 0)
(-0 -0 -0)
(-0 -0 0)
(-0 0 0)
(-0 0 0)
(-0 0 0)
(-0 -0 0)
(-0 -0 0)
(-0 1.659670238e-12 -1.582799964e-11)
(-0 1.169569778e-11 -3.836934026e-11)
(-0 2.771817585e-11 -5.5153063e-11)
(-0 3.240749887e-11 -4.576007196e-11)
(-0 9.180096667e-12 -9.695502694e-12)
(-0 2.197653586e-14 -1.683404459e-14)
(-0 1.502311484e-07 -6.174100565e-08)
(-0 1.249665452e-05 -3.487071691)
(-0 3.559458942e-07 -0.8083683682)
(-0 4.275418203e-10 -1.515533015e-10)
(-0 4.75922855e-15 -1.774359017e-15)
(-0 2.636195433e-15 -1.10446524e-15)
(-0 1.076005075e-15 -5.396667159e-16)
(-0 2.69416597e-16 -1.675475934e-16)
(-0 9.370113329e-17 -7.123711558e-17)
(-0 1.883180993e-17 -1.654863172e-17)
(-0 9.212796557e-18 -8.735232603e-18)
(-0 9.163673588e-19 -8.852632889e-19)
(-0 9.212205266e-19 -8.7284378e-19)
(-0 2.444741164e-19 -2.222672822e-19)
(-0 4.3515079e-20 -3.75456465e-20)
(-0 3.275496011e-20 -2.668982574e-20)
(-0 1.435112719e-20 -1.103061177e-20)
(-0 3.301447448e-21 -2.394037336e-21)
(-0 4.208985749e-22 -2.870115605e-22)
(-0 8.831395339e-23 -5.513166389e-23)
(-0 2.697760647e-23 -1.341083327e-23)
(-0 6.896641293e-24 -8.122710857e-24)
(-0 -1.267039084e-24 4.223463615e-25)
(-0 -7.336497504e-24 1.834124376e-24)
(-0 4.382327992e-24 -3.067629594e-24)
(-0 4.802918434e-24 -1.600972811e-25)
(-0 -3.035867199e-24 -1.34927431e-24)
(-0 -7.661713173e-24 -5.959110246e-24)
(-0 -6.351331746e-25 -1.799543995e-24)
(-0 0 -0)
(-0 -0 -0)
(-0 0 0)
(-0 0 0)
(-0 -0 -0)
(-0 -0 -0)
(-0 -0 0)
(-0 -0 0)
(-0 -0 0)
(-0 -0 0)
(-0 -0 0)
(-0 0 -0)
(-0 0 -0)
(-0 -0 -0)
(-0 -0 -0)
(-0 8.151896719e-13 -7.110683861e-12)
(-0 2.300779932e-12 -6.345285156e-12)
(-0 1.140401295e-11 -1.774562322e-11)
(-0 4.465434889e-11 -4.696509893e-11)
(-0 4.376101978e-11 -3.39630003e-11)
(-0 6.167687788e-12 -3.392489299e-12)
(-0 1.521199978e-07 -4.46000631e-08)
(-0 1.762327038e-05 -3.652766539)
(-0 5.050372124e-07 -0.9912464835)
(-0 4.572808724e-10 -1.485259631e-10)
(-0 1.002114983e-14 -3.71137108e-15)
(-0 4.576055847e-15 -2.086357192e-15)
(-0 1.290788979e-15 -7.593816188e-16)
(-0 4.679406282e-16 -3.509444359e-16)
(-0 2.107530324e-16 -1.885783342e-16)
(-0 8.680205753e-17 -8.51837548e-17)
(-0 3.297778959e-17 -3.310684604e-17)
(-0 7.375816359e-18 -7.24227734e-18)
(-0 2.363785984e-18 -2.214919474e-18)
(-0 1.572172598e-18 -1.389452574e-18)
(-0 4.448498101e-19 -3.691432084e-19)
(-0 5.339982423e-20 -4.157572268e-20)
(-0 1.351812662e-20 -9.887990587e-21)
(-0 4.120166058e-21 -2.838164317e-21)
(-0 1.486240297e-21 -9.687545751e-22)
(-0 1.390682733e-22 -8.610322814e-23)
(-0 8.140073476e-23 -4.816909459e-23)
(-0 1.416724802e-23 -6.913617032e-24)
(-0 5.074243398e-24 -1.377294637e-23)
(-0 -6.101475471e-24 -2.35738825e-24)
(-0 2.959561106e-25 -3.551473328e-24)
(-0 3.308779105e-24 -2.630055186e-24)
(-0 2.181631873e-24 -1.454421249e-24)
(-0 -9.650877807e-24 -6.433918538e-25)
(-0 -4.235715148e-24 3.130745979e-24)
(-0 1.868397952e-25 -4.774794767e-25)
(-0 0 -0)
(-0 0 -0)
(-0 -0 -0)
(-0 -0 0)
(-0 0 0)
(-0 0 -0)
(-0 -0 0)
(-0 -0 0)
(-0 -0 0)
(-0 -0 0)
(-0 -0 -0)
(-0 -0 -0)
(-0 -0 -0)
(-0 0 -0)
(-0 1.67176285e-12 -1.505725961e-11)
(-0 4.562450113e-12 -1.168248802e-11)
(-0 2.800261067e-12 -3.73033835e-12)
(-0 1.999731994e-11 -1.714616848e-11)
(-0 6.713885543e-11 -4.224169316e-11)
(-0 3.439239353e-11 -1.437819017e-11)
(-0 3.675165212e-07 -8.15932721e-08)
(-0 2.262875935e-05 -3.827820903)
(-0 6.546083173e-07 -1.272770684)
(-0 1.225925444e-09 -4.237135544e-10)
(-0 2.253576164e-14 -9.735847428e-15)
(-0 7.620783393e-15 -4.367797586e-15)
(-0 2.952889676e-15 -2.232400266e-15)
(-0 1.426572598e-15 -1.323396598e-15)
(-0 9.251431473e-16 -9.547024934e-16)
(-0 1.935957192e-16 -2.047493531e-16)
(-0 8.659954028e-17 -8.914039782e-17)
(-0 2.204427137e-17 -2.149574379e-17)
(-0 2.586521309e-18 -2.360900126e-18)
(-0 2.629554321e-18 -2.237989112e-18)
(-0 1.033217955e-18 -8.20037706e-19)
(-0 3.086832743e-19 -2.289270319e-19)
(-0 9.482891981e-20 -6.590899266e-20)
(-0 2.490941848e-20 -1.627060336e-20)
(-0 3.27346168e-21 -2.018087154e-21)
(-0 1.193875044e-21 -6.915664971e-22)
(-0 1.214587823e-22 -6.693366155e-23)
(-0 4.037989386e-23 -2.187856068e-23)
(-0 5.249204538e-24 -1.092402025e-23)
(-0 1.391858468e-24 -1.391858468e-24)
(-0 6.79790202e-25 2.26596734e-24)
(-0 8.020823477e-24 -2.673607826e-24)
(-0 4.322226377e-24 -3.241669783e-24)
(-0 -1.275543687e-24 -3.571522322e-24)
(-0 -5.434948123e-24 -4.180729325e-25)
(-0 -1.034538866e-24 -3.183196512e-25)
(-0 0 -0)
(-0 0 0)
(-0 0 0)
(-0 0 0)
(-0 -0 0)
(-0 0 0)
(-0 -0 -0)
(-0 -0 0)
(-0 -0 -0)
(-0 -0 -0)
(-0 0 -0)
(-0 0 0)
(-0 -0 -0)
(-0 -0 0)
(-0 1.065870623e-12 -1.194891886e-11)
(-0 6.479235666e-12 -1.734159596e-11)
(-0 7.46984448e-12 -9.32355381e-12)
(-0 5.066497343e-12 -3.886717887e-12)
(-0 6.265179776e-11 -3.371535276e-11)
(-0 6.886572705e-11 -2.457438974e-11)
(-0 6.843512568e-07 -1.257490011e-07)
(-0 2.736056366e-05 -4.330772517)
(-0 8.033872639e-07 -1.782625583)
(-0 2.566504006e-09 -1.09085229e-09)
(-0 4.269067756e-14 -2.440164026e-14)
(-0 1.231929056e-14 -9.524214809e-15)
(-0 9.264088815e-15 -9.006384849e-15)
(-0 2.426449763e-15 -2.658915497e-15)
(-0 8.658537584e-16 -9.732752969e-16)
(-0 3.609616818e-16 -3.924423381e-16)
(-0 1.055816345e-17 -1.077995442e-17)
(-0 3.505378584e-17 -3.320879355e-17)
(-0 7.667391037e-18 -6.719211667e-18)
(-0 3.949262934e-18 -3.20501851e-18)
(-0 1.503477616e-18 -1.133280361e-18)
(-0 3.204422378e-19 -2.251600183e-19)
(-0 7.575111136e-20 -4.980248188e-20)
(-0 2.234225742e-20 -1.379398977e-20)
(-0 3.260039246e-21 -1.897387797e-21)
(-0 1.78281197e-21 -9.801063032e-22)
(-0 1.281108365e-21 -6.685838015e-22)
(-0 2.035314052e-22 -1.024106057e-22)
(-0 3.6117805e-23 -1.617545868e-23)
(-0 1.382677605e-23 -5.121028166e-25)
(-0 -8.105701149e-25 1.891330268e-24)
(-0 5.849747553e-25 -8.77462133e-25)
(-0 1.558993241e-24 -7.126826246e-24)
(-0 -5.247964576e-24 -4.263971218e-24)
(-0 -3.301387615e-24 -5.187894823e-24)
(-0 3.944395677e-25 -1.314798559e-25)
(-0 0 -0)
(-0 0 -0)
(-0 0 -0)
(-0 -0 -0)
(-0 -0 -0)
(-0 -0 -0)
(-0 -0 -0)
(-0 -0 0)
(-0 -0 0)
(-0 -0 -0)
(-0 0 -0)
(-0 -0 -0)
(-0 -0 -0)
(-0 0 -0)
(-0 4.432278406e-13 -9.125278192e-12)
(-0 4.934062487e-12 -1.629059294e-11)
(-0 1.127475104e-11 -1.471431318e-11)
(-0 1.045509901e-11 -7.897293125e-12)
(-0 4.637529392e-11 -2.363118655e-11)
(-0 1.078929797e-10 -3.746054291e-11)
(-0 9.243270595e-07 -1.618687206e-07)
(-0 3.226876125e-05 -5.752591167)
(-0 9.658612931e-07 -2.869295114)
(-0 3.844967722e-09 -2.298943163e-09)
(-0 1.190593477e-14 -9.688903471e-15)
(-0 4.241310157e-14 -4.403603789e-14)
(-0 7.8127726e-15 -9.222178117e-15)
(-0 1.853592799e-15 -2.240401712e-15)
(-0 1.515163368e-15 -1.756318345e-15)
(-0 2.985774245e-16 -3.215671879e-16)
(-0 2.076106721e-16 -2.05319041e-16)
(-0 8.0044259e-17 -7.254933248e-17)
(-0 3.83760087e-17 -3.195453964e-17)
(-0 1.354248577e-17 -1.040217577e-17)
(-0 1.595860712e-18 -1.135972214e-18)
(-0 3.651320783e-19 -2.419601978e-19)
(-0 2.393054072e-19 -1.482584607e-19)
(-0 4.521471545e-20 -2.629304345e-20)
(-0 2.174149513e-20 -1.191075085e-20)
(-0 2.966472881e-21 -1.534212743e-21)
(-0 1.141426838e-21 -5.585295858e-22)
(-0 9.445761335e-22 -4.37279301e-22)
(-0 1.602767479e-22 -6.752400028e-23)
(-0 5.631143829e-24 -3.148596549e-24)
(-0 9.052371092e-25 -9.052371092e-25)
(-0 -1.024252387e-24 2.176536322e-24)
(-0 2.740316997e-24 -1.494718362e-24)
(-0 1.018744164e-24 1.018744164e-24)
(-0 -3.58682681e-24 -4.782435747e-25)
(-0 8.320193824e-25 8.320193824e-25)
(-0 0 -0)
(-0 0 -0)
(-0 0 -0)
(-0 0 0)
(-0 -0 0)
(-0 0 -0)
(-0 -0 0)
(-0 -0 0)
(-0 -0 0)
(-0 -0 -0)
(-0 0 -0)
(-0 -0 -0)
(-0 -0 -0)
(-0 0 -0)
(-0 -5.096047771e-14 -7.891960331e-12)
(-0 2.699378109e-12 -1.495226032e-11)
(-0 1.257542015e-11 -1.970579949e-11)
(-0 2.136466871e-11 -1.773780561e-11)
(-0 3.081496116e-11 -1.680628764e-11)
(-0 1.457506999e-10 -5.392303152e-11)
(-0 1.333530065e-06 -2.526078096e-07)
(-0 3.816560261e-05 -9.024659433)
(-0 1.168456959e-06 -5.363539519)
(-0 6.337116823e-09 -5.771052345e-09)
(-0 7.656337424e-14 -8.821547031e-14)
(-0 6.379685875e-14 -8.323245822e-14)
(-0 7.018862767e-15 -9.290984097e-15)
(-0 6.546915758e-15 -8.201015447e-15)
(-0 2.121487502e-15 -2.434473139e-15)
(-0 1.078032521e-15 -1.121359569e-15)
(-0 4.915084454e-16 -4.633713471e-16)
(-0 2.557455459e-16 -2.194272369e-16)
(-0 1.75621381e-16 -1.379018308e-16)
(-0 6.205549394e-17 -4.485399352e-17)
(-0 7.068071456e-18 -4.728735623e-18)
(-0 2.838664781e-18 -1.766765732e-18)
(-0 6.990586342e-19 -4.066158189e-19)
(-0 2.071417434e-19 -1.130649997e-19)
(-0 2.534234394e-20 -1.302819953e-20)
(-0 1.127825982e-20 -5.476118228e-21)
(-0 6.080206293e-21 -2.798777052e-21)
(-0 1.692120583e-21 -7.422332649e-22)
(-0 2.565624793e-22 -1.06901033e-22)
(-0 5.945263535e-23 -2.041292201e-23)
(-0 5.813841832e-24 3.750865698e-25)
(-0 6.21283725e-25 -6.21283725e-25)
(-0 -1.19442056e-24 5.374892519e-24)
(-0 -3.051716656e-24 4.831884705e-24)
(-0 -2.62482676e-24 1.431723687e-24)
(-0 -0 -2.733397004e-25)
(-0 3.459996208e-26 3.459996208e-26)
(-0 0 0)
(-0 0 -0)
(-0 0 -0)
(-0 -0 0)
(-0 0 0)
(-0 -0 0)
(-0 -0 0)
(-0 -0 0)
(-0 -0 -0)
(-0 0 -0)
(-0 -0 -0)
(-0 -0 0)
(-0 0 0)
(-0 -4.937684633e-13 -7.191736577e-12)
(-0 2.35235467e-13 -1.228757285e-11)
(-0 9.298157585e-12 -2.133803813e-11)
(-0 3.612139061e-11 -3.677804999e-11)
(-0 4.29574203e-11 -2.719499012e-11)
(-0 1.803778986e-10 -7.634659148e-11)
(-0 1.772295948e-06 -3.954428795e-07)
(-0 4.584559724e-05 -16.2607984)
(-0 1.456852513e-06 -11.16877601)
(-0 1.036102393e-08 -1.421954913e-08)
(-0 2.673707758e-13 -4.034956606e-13)
(-0 7.072639185e-14 -1.056427382e-13)
(-0 3.020246445e-14 -4.171809931e-14)
(-0 1.934117615e-14 -2.398316436e-14)
(-0 1.641212768e-14 -1.813766805e-14)
(-0 5.742382972e-15 -5.672378788e-15)
(-0 2.066012177e-15 -1.836358637e-15)
(-0 9.1289232e-16 -7.356765908e-16)
(-0 8.295783768e-16 -6.106046733e-16)
(-0 7.938970139e-17 -5.373092395e-17)
(-0 4.544275817e-17 -2.845088306e-17)
(-0 9.12092998e-18 -5.310793246e-18)
(-0 1.066641305e-18 -5.803381759e-19)
(-0 6.300930949e-19 -3.216872179e-19)
(-0 1.47693761e-19 -7.101741853e-20)
(-0 4.550405967e-20 -2.067992646e-20)
(-0 1.151316157e-20 -4.960101273e-21)
(-0 2.916086785e-21 -1.19474417e-21)
(-0 6.049331557e-22 -2.354452067e-22)
(-0 1.15287263e-22 -3.539339672e-23)
(-0 2.304827156e-23 -5.121838125e-24)
(-0 1.19281707e-24 -1.468082548e-24)
(-0 8.17031053e-24 4.766014476e-24)
(-0 -4.821402604e-24 1.145083118e-23)
(-0 -8.908912432e-24 8.908912432e-24)
(-0 4.863264378e-25 1.750775176e-24)
(-0 0 0)
(-0 0 0)
(-0 0 -0)
(-0 0 -0)
(-0 0 -0)
(-0 0 -0)
(-0 0 -0)
(-0 -0 -0)
(-0 -0 -0)
(-0 -0 0)
(-0 0 0)
(-0 -0 -0)
(-0 -0 -0)
(-0 0 0)
(-0 -9.006304667e-13 -6.971600312e-12)
(-0 -1.718098532e-12 -1.036841054e-11)
(-0 2.323675512e-12 -1.237271166e-11)
(-0 4.193812612e-11 -5.855993968e-11)
(-0 8.630757723e-11 -6.631888286e-11)
(-0 2.135110845e-10 -1.049734798e-10)
(-0 1.780564418e-06 -4.807077078e-07)
(-0 5.677435227e-05 -31.89050442)
(-0 1.930072736e-06 -24.47506312)
(-0 1.544284211e-08 -2.917073289e-08)
(-0 5.313979779e-13 -9.411478332e-13)
(-0 6.856434753e-14 -1.077393436e-13)
(-0 8.544373963e-14 -1.168345192e-13)
(-0 8.529372052e-14 -1.015310961e-13)
(-0 1.695971859e-14 -1.772270487e-14)
(-0 1.879561223e-15 -1.742551099e-15)
(-0 5.676433463e-15 -4.717772943e-15)
(-0 1.13606238e-15 -8.54456007e-16)
(-0 1.361535209e-15 -9.344197948e-16)
(-0 7.009304824e-16 -4.421270233e-16)
(-0 8.15986927e-17 -4.760353884e-17)
(-0 7.44696505e-18 -4.040143083e-18)
(-0 5.037250713e-18 -2.553623623e-18)
(-0 1.554072722e-18 -7.392974016e-19)
(-0 3.855105888e-19 -1.727436732e-19)
(-0 1.572051359e-19 -6.657607566e-20)
(-0 1.257707575e-20 -5.047107589e-21)
(-0 1.637907919e-21 -6.248572369e-22)
(-0 1.245702435e-21 -4.48917208e-22)
(-0 2.801520525e-22 -8.689901628e-23)
(-0 3.828477674e-23 -1.071271276e-23)
(-0 8.433803392e-24 3.291240348e-24)
(-0 8.72444356e-24 5.011914385e-24)
(-0 1.750775176e-24 4.960529666e-24)
(-0 -7.159948652e-24 1.085540602e-23)
(-0 -1.401298464e-24 2.802596929e-24)
(-0 0 0)
(-0 -0 0)
(-0 0 -0)
(-0 0 -0)
(-0 0 0)
(-0 -0 -0)
(-0 -0 -0)
(-0 -0 -0)
(-0 -0 -0)
(-0 -0 0)
(-0 -0 0)
(-0 -0 0)
(-0 -0 -0)
(-0 0 -0)
(-0 -1.249170599e-12 -7.198820048e-12)
(-0 -3.722869491e-12 -1.048539741e-11)
(-0 -3.364609535e-13 -3.490245823e-12)
(-0 2.226074659e-11 -5.190270313e-11)
(-0 1.410628669e-10 -1.37457878e-10)
(-0 1.899599449e-10 -1.076494568e-10)
(-0 1.416194066e-06 -4.463948132e-07)
(-0 7.417250595e-05 -64.22058787)
(-0 2.7298334e-06 -54.15034676)
(-0 1.677348831e-08 -3.841017314e-08)
(-0 3.951533345e-13 -7.431513712e-13)
(-0 4.553784308e-13 -7.079475353e-13)
(-0 2.92390726e-13 -3.822224984e-13)
(-0 7.537578377e-14 -8.440275548e-14)
(-0 1.99184039e-14 -1.943141211e-14)
(-0 1.287067576e-14 -1.10996303e-14)
(-0 3.433354188e-15 -2.649891745e-15)
(-0 6.089869533e-15 -4.250266466e-15)
(-0 1.637700267e-15 -1.042651099e-15)
(-0 8.362497734e-16 -4.892922273e-16)
(-0 1.630798257e-16 -8.825369965e-17)
(-0 7.135774718e-17 -3.591482049e-17)
(-0 1.819551912e-17 -8.558363609e-18)
(-0 6.857561199e-18 -3.027127887e-18)
(-0 1.688264203e-18 -7.020501119e-19)
(-0 1.188136639e-19 -4.669747764e-20)
(-0 5.798955829e-20 -2.160416345e-20)
(-0 1.192317233e-20 -4.219316107e-21)
(-0 2.122860817e-21 -7.10457293e-22)
(-0 3.730278511e-22 -1.158845288e-22)
(-0 8.617492007e-23 -2.70589249e-23)
(-0 2.196694261e-23 -8.614487299e-25)
(-0 6.196081858e-24 5.023850155e-24)
(-0 1.01825049e-24 -1.527375735e-24)
(-0 -5.837004374e-24 -4.490003364e-24)
(-0 -2.117517679e-24 1.868397952e-25)
(-0 -0 -0)
(-0 0 -0)
(-0 0 -0)
(-0 0 0)
(-0 0 0)
(-0 -0 -0)
(-0 -0 -0)
(-0 -0 -0)
(-0 -0 -0)
(-0 0 -0)
(-0 -0 -0)
(-0 -0 -0)
(-0 -0 -0)
(-0 0 -0)
(-0 -1.256548049e-12 -6.690483252e-12)
(-0 -6.183151733e-12 -1.220453582e-11)
(-0 -1.678448184e-12 -3.951151028e-12)
(-0 1.092821208e-12 -1.050330105e-11)
(-0 1.240866368e-10 -1.668173138e-10)
(-0 2.650516034e-10 -1.755342971e-10)
(-0 4.468276688e-05 -1.92673631e-05)
(-0 0.0001140903742 -131.6340834)
(-0 4.005326958e-06 -118.2391895)
(-0 2.499674276e-08 -6.165426702e-08)
(-0 1.267460989e-12 -2.353078134e-12)
(-0 1.10461345e-12 -1.631680707e-12)
(-0 1.072569957e-13 -1.309992461e-13)
(-0 3.354333284e-13 -3.483355224e-13)
(-0 1.270710385e-13 -1.145935452e-13)
(-0 4.336895997e-14 -3.452798624e-14)
(-0 2.716343925e-14 -1.934538367e-14)
(-0 6.912861051e-15 -4.451622481e-15)
(-0 1.852277319e-15 -1.088197019e-15)
(-0 7.944727729e-16 -4.290253028e-16)
(-0 1.307063244e-16 -6.529564124e-17)
(-0 1.189610283e-16 -5.5280814e-17)
(-0 9.596948971e-17 -4.168440403e-17)
(-0 1.296328515e-17 -5.285193148e-18)
(-0 2.250035429e-18 -8.64296605e-19)
(-0 1.152935124e-18 -4.186476371e-19)
(-0 1.491813349e-19 -5.135736728e-20)
(-0 2.924696896e-20 -9.571592398e-21)
(-0 4.536107528e-21 -1.414567353e-21)
(-0 7.049482062e-22 -2.130535964e-22)
(-0 2.32241331e-22 -7.868285532e-23)
(-0 4.248244157e-23 -1.192489588e-23)
(-0 8.934595265e-24 -5.24421896e-24)
(-0 -1.336042221e-23 -9.875094675e-24)
(-0 -2.303432545e-24 -3.570320445e-24)
(-0 0 0)
(-0 0 0)
(-0 -0 0)
(-0 0 -0)
(-0 0 0)
(-0 0 -0)
(-0 -0 0)
(-0 -0 0)
(-0 -0 -0)
(-0 -0 0)
(-0 -0 -0)
(-0 -0 0)
(-0 -0 -0)
(-0 -0 0)
(-0 0 -0)
(-0 -3.313551979e-13 -1.816621664e-12)
(-0 -6.359945703e-12 -1.119386102e-11)
(-0 -7.793264883e-12 -1.031965452e-11)
(-0 -1.11187343e-12 -3.691160602e-12)
(-0 1.085261194e-11 -2.602045226e-11)
(-0 2.637786084e-10 -2.1654317e-10)
(-0 0.0001232738741 -0.0001322463666)
(-0 0.0001187721842 -270.6210921)
(-0 6.523273019e-06 -251.1419022)
(-0 7.209274106e-08 -1.746329191e-07)
(-0 3.141872423e-12 -5.484255668e-12)
(-0 8.324007957e-13 -1.137486992e-12)
(-0 9.62191496e-13 -1.080339215e-12)
(-0 5.059084212e-13 -4.818528354e-13)
(-0 2.738759846e-13 -2.263768627e-13)
(-0 1.047802306e-13 -7.646179794e-14)
(-0 1.153604993e-14 -7.532579628e-15)
(-0 2.694645432e-14 -1.591516878e-14)
(-0 2.97567062e-15 -1.603952328e-15)
(-0 6.539545203e-16 -3.241159388e-16)
(-0 1.572124907e-15 -7.210268319e-16)
(-0 5.16853053e-16 -2.205592566e-16)
(-0 1.12957628e-16 -4.506520326e-17)
(-0 2.944245733e-17 -1.102779931e-17)
(-0 1.050246769e-17 -3.706861332e-18)
(-0 2.375647112e-18 -7.927477925e-19)
(-0 2.308248217e-19 -7.303936351e-20)
(-0 4.644782614e-20 -1.397555778e-20)
(-0 8.906358049e-21 -2.553416536e-21)
(-0 2.617869765e-21 -7.247715608e-22)
(-0 3.490496075e-22 -9.884863167e-23)
(-0 6.355793603e-23 -1.674070636e-23)
(-0 1.378499312e-23 -1.09045468e-23)
(-0 4.252612913e-37 -1.928084245e-24)
(-0 2.698797042e-25 1.124498768e-25)
(-0 0 0)
(-0 -0 -0)
(-0 -0 0)
(-0 0 0)
(-0 0 0)
(-0 0 0)
(-0 -0 -0)
(-0 -0 0)
(-0 -0 0)
(-0 -0 -0)
(-0 0 -0)
(-0 -0 0)
(-0 -0 0)
(-0 -0 0)
(-0 0 -0)
(-0 -3.433614223e-14 -2.05829652e-13)
(-0 -2.837759178e-12 -5.119218208e-12)
(-0 -1.212731138e-11 -1.285441445e-11)
(-0 -5.244539205e-12 -6.636450682e-12)
(-0 2.367405594e-14 -4.411732941e-12)
(-0 2.233246123e-11 -2.57577267e-11)
(-0 7.433396687e-05 -4.900853298e-05)
(-0 5.036430923e-05 -546.1583038)
(-0 1.217573089e-05 -512.9909304)
(-0 1.204182514e-07 -2.684129659e-07)
(-0 1.379697564e-12 -2.191659731e-12)
(-0 1.795493275e-12 -2.227025712e-12)
(-0 1.111198973e-12 -1.132374623e-12)
(-0 7.720136028e-13 -6.678501413e-13)
(-0 5.324064214e-13 -4.000565612e-13)
(-0 7.115431454e-14 -4.724307137e-14)
(-0 2.152728761e-13 -1.279892171e-13)
(-0 1.821953708e-14 -9.804370273e-15)
(-0 1.255016115e-14 -6.166771855e-15)
(-0 1.545201834e-14 -6.984416537e-15)
(-0 3.389983242e-15 -1.418442918e-15)
(-0 4.607054442e-16 -1.794168169e-16)
(-0 2.724910609e-16 -9.92361951e-17)
(-0 9.411702185e-17 -3.218609517e-17)
(-0 2.259863903e-17 -7.283881152e-18)
(-0 2.638519955e-18 -8.041703729e-19)
(-0 2.193338668e-19 -6.339853654e-20)
(-0 2.741836385e-20 -7.535152744e-21)
(-0 2.886417389e-21 -7.552887206e-22)
(-0 3.316900306e-22 -8.305849764e-23)
(-0 6.82588052e-23 -1.622392222e-23)
(-0 5.366235271e-23 -1.249491056e-23)
(-0 1.667406456e-23 -2.81656496e-24)
(-0 1.202950919e-24 1.060852637e-37)
(-0 -6.924316061e-26 2.308105354e-25)
(-0 -0 -0)
(-0 0 -0)
(-0 -0 -0)
(-0 0 0)
(-0 0 0)
(-0 -0 -0)
(-0 -0 -0)
(-0 -0 0)
(-0 -0 0)
(-0 -0 0)
(-0 0 0)
(-0 -0 -0)
(-0 -0 -0)
(-0 -0 0)
(-0 0 0)
(-0 -3.504438918e-15 -2.182959875e-14)
(-0 -6.809760291e-13 -1.267392395e-12)
(-0 -8.144347608e-12 -8.448080499e-12)
(-0 -1.399095707e-11 -1.189135496e-11)
(-0 -3.202256844e-12 -6.163545522e-12)
(-0 1.280651295e-11 -2.842507258e-11)
(-0 9.945584344e-06 -6.376232663e-06)
(-0 0.0001176705876 -1061.363823)
(-0 2.33289776e-05 -997.514494)
(-0 5.477794579e-09 -1.075961285e-08)
(-0 3.967614033e-12 -5.604667244e-12)
(-0 1.978035639e-12 -2.193638447e-12)
(-0 1.522732002e-12 -1.392461677e-12)
(-0 1.655221399e-12 -1.288181695e-12)
(-0 5.722629981e-13 -3.875662215e-13)
(-0 9.581874401e-13 -5.741964838e-13)
(-0 1.455947394e-13 -7.820961854e-14)
(-0 8.168282837e-14 -3.974633243e-14)
(-0 7.057873935e-14 -3.137933377e-14)
(-0 1.230996384e-14 -5.037133246e-15)
(-0 7.704100064e-15 -2.919413059e-15)
(-0 1.937557065e-15 -6.835941768e-16)
(-0 2.505969241e-16 -8.270218147e-17)
(-0 3.161698285e-17 -9.800391155e-18)
(-0 1.121243891e-17 -3.276329962e-18)
(-0 3.115408128e-18 -8.609527242e-19)
(-0 5.233673992e-19 -1.371910198e-19)
(-0 1.603323328e-19 -3.996827588e-20)
(-0 3.426375059e-20 -8.142473171e-21)
(-0 8.029177307e-21 -1.821113035e-21)
(-0 1.516756052e-21 -3.279727701e-22)
(-0 4.073606543e-22 -8.897980161e-23)
(-0 5.949798987e-23 -1.805775568e-23)
(-0 9.858087833e-24 -4.059212637e-24)
(-0 1.834415626e-24 4.23326683e-25)
(-0 -5.189994312e-26 -2.594997156e-26)
(-0 -0 -0)
(-0 0 -0)
(-0 0 0)
(-0 0 -0)
(-0 -0 -0)
(-0 -0 -0)
(-0 -0 0)
(-0 -0 0)
(-0 -0 0)
(-0 -0 0)
(-0 -0 -0)
(-0 -0 0)
(-0 -0 -0)
(-0 0 -0)
(-0 -5.471289829e-16 -3.360980159e-15)
(-0 -8.695446233e-14 -1.600405734e-13)
(-0 -3.330555769e-12 -3.32637601e-12)
(-0 -1.514481603e-11 -1.107965398e-11)
(-0 -1.149542773e-11 -1.035156469e-11)
(-0 -1.602420962e-12 -3.1045649e-11)
(-0 3.983952503e-06 -3.623760623e-06)
(-0 0.000174649761 -1948.94686)
(-0 4.508263425e-05 -1828.879152)
(-0 1.35791304e-08 -2.284942045e-08)
(-0 1.27337144e-11 -1.571472321e-11)
(-0 7.815115018e-12 -7.646911577e-12)
(-0 4.826746802e-12 -3.916699941e-12)
(-0 4.580765393e-12 -3.17495585e-12)
(-0 1.431176382e-12 -8.65322944e-13)
(-0 1.10171083e-12 -5.90410067e-13)
(-0 6.721100003e-13 -3.232727651e-13)
(-0 2.273234713e-13 -9.913486311e-14)
(-0 5.732640873e-14 -2.285845743e-14)
(-0 3.771883937e-14 -1.384987814e-14)
(-0 2.5934367e-15 -8.822653437e-16)
(-0 2.87352987e-15 -9.104612818e-16)
(-0 8.925776269e-16 -2.646141549e-16)
(-0 2.685636216e-16 -7.479944058e-17)
(-0 8.489786704e-17 -2.229450987e-17)
(-0 1.770358445e-17 -4.397563839e-18)
(-0 2.409803878e-18 -5.678628941e-19)
(-0 4.597081818e-19 -1.030409767e-19)
(-0 7.494983024e-20 -1.602142717e-20)
(-0 1.505769593e-20 -3.073107975e-21)
(-0 3.117578887e-21 -6.087923279e-22)
(-0 5.329614205e-22 -1.000917046e-22)
(-0 9.033235884e-23 -2.458159322e-23)
(-0 2.677338538e-23 -6.414456913e-24)
(-0 1.664200628e-24 -2.218934171e-24)
(-0 -4.750412249e-25 -5.700494699e-25)
(-0 0 -0)
(-0 0 -0)
(-0 0 -0)
(-0 0 0)
(-0 -0 0)
(-0 -0 0)
(-0 -0 -0)
(-0 -0 -0)
(-0 -0 0)
(-0 -0 0)
(-0 -0 0)
(-0 -0 0)
(-0 -0 0)
(-0 0 0)
(-0 -5.877339145e-17 -3.452465659e-16)
(-0 -7.994362566e-15 -1.40864525e-14)
(-0 -7.93982212e-13 -7.666316107e-13)
(-0 -9.774760173e-12 -6.668528377e-12)
(-0 -1.655541395e-11 -1.031780362e-11)
(-0 -1.755005744e-11 -2.540113508e-11)
(-0 1.53489158e-06 -2.537565825e-06)
(-0 0.0001707308578 -3326.712548)
(-0 7.516443315e-05 -3133.381044)
(-0 5.653438358e-08 -7.993007795e-08)
(-0 1.096720691e-11 -1.164778064e-11)
(-0 1.32407848e-11 -1.128346138e-11)
(-0 1.241641406e-11 -8.834484836e-12)
(-0 6.609959204e-12 -4.033965282e-12)
(-0 3.609810262e-12 -1.927043534e-12)
(-0 5.39120894e-12 -2.555696431e-12)
(-0 1.998108702e-13 -8.512645426e-14)
(-0 7.984358556e-13 -3.087194145e-13)
(-0 5.348520916e-14 -1.892289088e-14)
(-0 4.67243869e-14 -1.523136506e-14)
(-0 1.700427109e-14 -5.13785733e-15)
(-0 2.269107298e-15 -6.387855371e-16)
(-0 3.80886384e-16 -1.003555418e-16)
(-0 2.254237941e-16 -5.581257454e-17)
(-0 3.45650943e-17 -8.070584574e-18)
(-0 1.426015815e-17 -3.150017106e-18)
(-0 2.577415251e-18 -5.401859431e-19)
(-0 4.061218072e-19 -8.096928215e-20)
(-0 1.519138415e-19 -2.887943804e-20)
(-0 2.699963555e-20 -4.910348221e-21)
(-0 5.886366477e-21 -1.021945693e-21)
(-0 1.174632127e-21 -1.915882417e-22)
(-0 1.266463778e-22 -2.080619065e-23)
(-0 4.110055614e-23 -6.942661511e-24)
(-0 9.986390642e-24 9.986390642e-25)
(-0 -5.788367873e-24 1.929455958e-24)
(-0 -4.15199545e-25 -6.227993175e-25)
(-0 0 -0)
(-0 0 -0)
(-0 0 0)
(-0 -0 0)
(-0 -0 0)
(-0 -0 0)
(-0 -0 -0)
(-0 -0 0)
(-0 -0 0)
(-0 -0 0)
(-0 -0 0)
(-0 -0 0)
(-0 0 0)
(-0 -2.50137582e-18 -1.359085637e-17)
(-0 -5.680138839e-16 -9.24641422e-16)
(-0 -9.899828349e-14 -8.901176315e-14)
(-0 -4.188353422e-12 -2.708027612e-12)
(-0 -1.370739492e-11 -7.563072004e-12)
(-0 -1.529038757e-11 -1.081695942e-11)
(-0 2.905391294e-08 -1.734917954e-06)
(-0 0.0001175670452 -5213.560142)
(-0 4.40117522e-07 -4975.071283)
(-0 1.117986158e-05 -1.318011775e-05)
(-0 5.071810183e-11 -4.568960094e-11)
(-0 2.917940454e-12 -2.135463599e-12)
(-0 2.737202006e-11 -1.684422574e-11)
(-0 1.200004978e-11 -6.361581583e-12)
(-0 1.059308377e-11 -4.926138303e-12)
(-0 2.409199967e-12 -9.967988658e-13)
(-0 2.409750076e-12 -8.972573718e-13)
(-0 9.08392071e-13 -3.072728083e-13)
(-0 1.452130403e-13 -4.497851509e-14)
(-0 1.104218465e-13 -3.153111807e-14)
(-0 1.894616026e-14 -5.016768475e-15)
(-0 9.005632934e-15 -2.2225093e-15)
(-0 1.686697862e-15 -3.897030586e-16)
(-0 3.628375372e-16 -7.879421159e-17)
(-0 1.59413242e-16 -3.265304529e-17)
(-0 1.535899134e-17 -2.976817938e-18)
(-0 3.7448862e-18 -6.887438866e-19)
(-0 1.298429994e-18 -2.271813659e-19)
(-0 1.527719072e-19 -2.548970101e-20)
(-0 1.21358224e-20 -1.935453111e-21)
(-0 1.119982208e-20 -1.707907974e-21)
(-0 8.181157584e-22 -1.185600629e-22)
(-0 1.906084521e-22 -2.705522901e-23)
(-0 4.998028575e-23 -6.33552918e-24)
(-0 1.268833023e-23 -4.023129096e-24)
(-0 -9.598317602e-24 -1.562516819e-24)
(-0 -2.826816902e-24 1.972197839e-25)
(-0 0 -0)
(-0 0 0)
(-0 0 0)
(-0 -0 0)
(-0 -0 -0)
(-0 -0 -0)
(-0 -0 0)
(-0 -0 -0)
(-0 -0 -0)
(-0 -0 0)
(-0 -0 0)
(-0 -0 0)
(-0 0 0)
(-0 -1.670585926e-20 -8.086807862e-20)
(-0 -1.387851611e-17 -2.014408964e-17)
(-0 -2.659562666e-15 -2.146666565e-15)
(-0 -1.784676703e-12 -1.05704765e-12)
(-0 -7.778512943e-12 -3.969181873e-12)
(-0 -5.435563226e-12 -2.780411628e-12)
(-0 -3.614837824e-07 -4.891487437e-07)
(-0 -1.403742874e-05 -7443.295403)
(-0 -0.0001847423743 -7261.902744)
(-0 0.0001251407676 -0.0001447948085)
(-0 7.02676281e-11 -5.283602086e-11)
(-0 2.595429683e-11 -1.604256011e-11)
(-0 7.184368839e-11 -3.759719835e-11)
(-0 1.175796011e-11 -5.323234867e-12)
(-0 9.354286695e-12 -3.72521825e-12)
(-0 7.27171528e-12 -2.581296713e-12)
(-0 9.767987983e-13 -3.124527514e-13)
(-0 8.160305859e-13 -2.373569803e-13)
(-0 5.01485061e-13 -1.336617462e-13)
(-0 8.765177523e-14 -2.154896617e-14)
(-0 1.293569214e-14 -2.950215231e-15)
(-0 9.467950936e-15 -2.013208072e-15)
(-0 1.611946265e-15 -3.209701363e-16)
(-0 5.83988744e-16 -1.093194141e-16)
(-0 1.087458134e-16 -1.920435052e-17)
(-0 2.032660759e-17 -3.397089188e-18)
(-0 9.420718876e-18 -1.494191724e-18)
(-0 9.889426405e-19 -1.49238909e-19)
(-0 4.995918675e-19 -7.190275818e-20)
(-0 1.20369972e-19 -1.654952065e-20)
(-0 1.075726229e-20 -1.416557122e-21)
(-0 1.212675365e-21 -1.539436488e-22)
(-0 1.768196462e-22 -2.291901488e-23)
(-0 6.537704037e-23 -1.194821772e-23)
(-0 1.378065931e-23 -4.685424165e-24)
(-0 -3.766887638e-24 -5.982703896e-24)
(-0 -1.619278225e-24 -1.799198028e-25)
(-0 0 0)
(-0 0 0)
(-0 0 0)
(-0 -0 0)
(-0 -0 -0)
(-0 -0 -0)
(-0 -0 -0)
(-0 -0 -0)
(-0 -0 -0)
(-0 0 0)
(-0 -0 0)
(-0 -0 0)
(-0 -0 0)
(-0 -1.276231509e-52 -5.27594013e-52)
(-0 -7.169768258e-20 -8.907140878e-20)
(-0 -2.346631162e-17 -1.637626626e-17)
(-0 -4.91361685e-13 -2.558245952e-13)
(-0 -4.039122073e-12 -1.88836924e-12)
(-0 -3.409181992e-12 -1.545613996e-12)
(-0 -2.482820044e-08 -1.558436321e-08)
(-0 -0.0002493899143 -9613.236963)
(-0 0.0001200764073 -9656.775699)
(-0 0.0003261021448 -0.0003893093016)
(-0 6.969191629e-11 -4.285423268e-11)
(-0 1.236821739e-10 -6.318564432e-11)
(-0 5.993854855e-11 -2.608794765e-11)
(-0 3.231223009e-11 -1.221440631e-11)
(-0 7.647995661e-12 -2.549499743e-12)
(-0 9.523022812e-12 -2.834588066e-12)
(-0 2.246262509e-12 -6.032221531e-13)
(-0 3.896760754e-13 -9.523888592e-14)
(-0 2.028157783e-13 -4.545119332e-14)
(-0 1.859324286e-13 -3.845271927e-14)
(-0 1.334444036e-14 -2.561146852e-15)
(-0 1.140164669e-14 -2.040795899e-15)
(-0 5.6069089e-15 -9.400274571e-16)
(-0 2.946322219e-16 -4.644729639e-17)
(-0 3.631325196e-17 -5.40143653e-18)
(-0 2.264136382e-17 -3.187572814e-18)