/*--------------------------------*- C++ -*----------------------------------*\
  =========                 |
  \\      /  F ield         | OpenFOAM: The Open Source CFD Toolbox
   \\    /   O peration     | Website:  https://openfoam.org
    \\  /    A nd           | Version:  6
     \\/     M anipulation  |
\*---------------------------------------------------------------------------*/
FoamFile
{
    version     2.0;
    format      ascii;
    class       volScalarField;
    location    "0.06";
    object      Num_divU;
}
// * * * * * * * * * * * * * * * * * * * * * * * * * * * * * * * * * * * * * //

dimensions      [0 0 -1 0 0 0 0];

internalField   nonuniform List<scalar> 
2500
(
3.763802298e-07
8.625864703e-08
5.65591637e-09
-2.126312226e-07
1.203725865e-08
2.352598109e-07
-2.796158189e-08
-5.301249284e-07
-6.196861453e-07
3.130272069e-23
-1.978152748e-17
-4.446500392e-17
-6.767217159e-17
-9.026766089e-17
-1.125897463e-16
-1.346912558e-16
-1.565536136e-16
-1.781440728e-16
-1.99427187e-16
-2.203676259e-16
-2.409311937e-16
-2.6108513e-16
-2.807978585e-16
-3.000392305e-16
-3.187807643e-16
-3.369956374e-16
-3.546585055e-16
-3.717455984e-16
-3.882346801e-16
-4.041051672e-16
-4.193380892e-16
-4.339159616e-16
-4.478228492e-16
-4.610441637e-16
-4.735667847e-16
-4.853789461e-16
-4.964701154e-16
-5.068309553e-16
-5.164532694e-16
-5.253298957e-16
-5.334546607e-16
-5.408224172e-16
-5.474287379e-16
-5.532702133e-16
-5.583440943e-16
-5.626486029e-16
-5.661825801e-16
-5.689457448e-16
-5.709378786e-16
-5.721552411e-16
8.437269821e-08
-2.824717935e-07
2.9254621e-09
5.385106628e-09
-1.543810489e-07
2.593503606e-08
6.965785333e-07
2.03199744e-06
-1.085020562e-07
-3.946557498e-17
-8.274840584e-17
-1.253855746e-16
-1.659885157e-16
-2.058884e-16
-2.453552525e-16
-2.84384244e-16
-3.229192313e-16
-3.608971894e-16
-3.982559765e-16
-4.349347886e-16
-4.708749636e-16
-5.060205807e-16
-5.403184967e-16
-5.737181028e-16
-6.06171572e-16
-6.376337453e-16
-6.680624037e-16
-6.974182384e-16
-7.25664758e-16
-7.52768208e-16
-7.78697615e-16
-8.034246566e-16
-8.269235157e-16
-8.491709667e-16
-8.701460795e-16
-8.898302201e-16
-9.082068734e-16
-9.252614709e-16
-9.409814135e-16
-9.553558106e-16
-9.683754469e-16
-9.800328121e-16
-9.903218804e-16
-9.992382275e-16
-1.006779269e-15
-1.012944915e-15
-1.017739295e-15
-1.021176448e-15
-1.023298546e-15
-4.517214731e-16
1.982192203e-07
5.218949021e-08
-8.606814274e-09
8.332557946e-09
2.932483944e-08
-1.588048683e-07
-6.20415956e-07
-1.705478876e-07
1.285834103e-08
-3.233788357e-17
-6.89351087e-17
-1.057754714e-16
-1.410549433e-16
-1.758156057e-16
-2.102300347e-16
-2.442751041e-16
-2.778968262e-16
-3.110386867e-16
-3.43645962e-16
-3.756655276e-16
-4.070463696e-16
-4.377396136e-16
-4.676987541e-16
-4.968793226e-16
-5.252393973e-16
-5.527394661e-16
-5.793425352e-16
-6.05014184e-16
-6.29722309e-16
-6.534373123e-16
-6.761319344e-16
-6.977813433e-16
-7.183628433e-16
-7.378560337e-16
-7.562425178e-16
-7.735058403e-16
-7.896314557e-16
-8.046065509e-16
-8.184199225e-16
-8.310619741e-16
-8.425244538e-16
-8.528005623e-16
-8.618847594e-16
-8.697726902e-16
-8.764610799e-16
-8.819477074e-16
-8.862306669e-16
-8.893051994e-16
-8.911497362e-16
-4.400764426e-16
1.784509823e-07
4.117521271e-08
-4.226663158e-08
-2.398226368e-08
2.903562263e-07
4.191738731e-07
8.291959462e-08
-1.282656631e-07
1.370418502e-07
-3.183635038e-17
-6.769403293e-17
-1.039333397e-16
-1.386916754e-16
-1.729586658e-16
-2.068903313e-16
-2.404600656e-16
-2.736135704e-16
-3.062942961e-16
-3.384481536e-16
-3.70022874e-16
-4.009680831e-16
-4.31235631e-16
-4.60779673e-16
-4.895564821e-16
-5.175246029e-16
-5.446451527e-16
-5.708816017e-16
-5.961998973e-16
-6.205684516e-16
-6.4395813e-16
-6.663419917e-16
-6.876955671e-16
-7.07996533e-16
-7.272246629e-16
-7.453618502e-16
-7.623918632e-16
-7.783003633e-16
-7.930746408e-16
-8.067036318e-16
-8.19177835e-16
-8.304890224e-16
-8.406303401e-16
-8.495960655e-16
-8.573814943e-16
-8.639827468e-16
-8.693963025e-16
-8.736183499e-16
-8.766427991e-16
-8.784589688e-16
-4.390433849e-16
9.934696502e-08
3.276535933e-08
-9.123802156e-09
-1.940366275e-07
7.171655911e-09
2.502059823e-07
1.560065393e-07
-2.873341751e-07
1.473931817e-07
-3.18176087e-17
-6.760635575e-17
-1.037952574e-16
-1.385156326e-16
-1.727464235e-16
-2.066415376e-16
-2.401749028e-16
-2.732924523e-16
-3.059374364e-16
-3.380558035e-16
-3.695953453e-16
-4.005058707e-16
-4.307393368e-16
-4.602498928e-16
-4.889938712e-16
-5.169299638e-16
-5.440192377e-16
-5.702252451e-16
-5.9551403e-16
-6.198540502e-16
-6.4321613e-16
-6.655735166e-16
-6.869016739e-16
-7.071783475e-16
-7.263833582e-16
-7.44498591e-16
-7.615078637e-16
-7.773968088e-16
-7.921527296e-16
-8.057645808e-16
-8.182228008e-16
-8.295190941e-16
-8.396464926e-16
-8.485990303e-16
-8.563717919e-16
-8.629604085e-16
-8.68360936e-16
-8.725692649e-16
-8.755805065e-16
-8.773891909e-16
-4.390127354e-16
1.344472255e-07
8.190209354e-08
1.314274188e-07
-2.435863086e-08
-4.975790089e-08
1.025786706e-07
1.340364154e-07
-1.665673523e-07
1.04074207e-08
-3.182868436e-17
-6.762491204e-17
-1.038142394e-16
-1.385402939e-16
-1.72777976e-16
-2.066790554e-16
-2.402180755e-16
-2.733408414e-16
-3.059906176e-16
-3.381129585e-16
-3.696559447e-16
-4.005695645e-16
-4.308057894e-16
-4.603187697e-16
-4.890648834e-16
-5.170027648e-16
-5.440935407e-16
-5.703008112e-16
-5.955905992e-16
-6.199313438e-16
-6.43293961e-16
-6.656516411e-16
-6.869798878e-16
-7.072564142e-16
-7.264610646e-16
-7.445757318e-16
-7.615842141e-16
-7.774721699e-16
-7.922269411e-16
-8.058373467e-16
-8.182937833e-16
-8.295879838e-16
-8.397127816e-16
-8.486621743e-16
-8.564309539e-16
-8.630146402e-16
-8.684091789e-16
-8.726107282e-16
-8.756154192e-16
-8.774198027e-16
-4.390776963e-16
2.505262161e-07
1.115239827e-07
1.572349025e-07
1.985005536e-07
6.034981077e-08
-3.368474761e-09
4.574157138e-08
1.879369632e-07
-1.031442464e-07
-3.183570155e-17
-6.765367228e-17
-1.038490828e-16
-1.385821707e-16
-1.72829281e-16
-2.067393004e-16
-2.402875457e-16
-2.734196222e-16
-3.060783491e-16
-3.382087639e-16
-3.697590093e-16
-4.006792933e-16
-4.309216511e-16
-4.604404002e-16
-4.891918406e-16
-5.171346773e-16
-5.442300302e-16
-5.70441495e-16
-5.957351492e-16
-6.200794293e-16
-6.434452428e-16
-6.658057235e-16
-6.871364423e-16
-7.074151005e-16
-7.266215466e-16
-7.447376508e-16
-7.617472523e-16
-7.776359631e-16
-7.923911042e-16
-8.060015185e-16
-8.184575837e-16
-8.297508634e-16
-8.398742518e-16
-8.488215901e-16
-8.565876127e-16
-8.631677992e-16
-8.685582028e-16
-8.727552406e-16
-8.75755725e-16
-8.775571069e-16
-4.391521012e-16
2.591477817e-07
1.445874947e-07
8.283129309e-08
3.31436566e-07
2.55783822e-07
4.798405802e-09
-8.327898162e-08
3.416438437e-07
-4.851338047e-08
-3.184141083e-17
-6.767657359e-17
-1.038835326e-16
-1.386243063e-16
-1.728810705e-16
-2.067991954e-16
-2.403557407e-16
-2.734968018e-16
-3.061648719e-16
-3.383040079e-16
-3.69862135e-16
-4.007894672e-16
-4.310383458e-16
-4.605630436e-16
-4.893200763e-16
-5.172681045e-16
-5.443682917e-16
-5.705842486e-16
-5.958820205e-16
-6.202300804e-16
-6.435992689e-16
-6.659628338e-16
-6.872962179e-16
-7.075771971e-16
-7.267856436e-16
-7.449033764e-16
-7.619142721e-16
-7.778038951e-16
-7.925596112e-16
-8.061702207e-16
-8.186260269e-16
-8.299186611e-16
-8.400408691e-16
-8.489865057e-16
-8.567503138e-16
-8.633278003e-16
-8.687150681e-16
-8.729088675e-16
-8.759063986e-16
-8.77705597e-16
-4.392269232e-16
8.565002591e-08
1.900429076e-07
2.998401048e-08
3.090541615e-07
3.558529157e-07
1.824873939e-07
-1.019801566e-07
1.077320288e-07
6.399736453e-08
-3.185109014e-17
-6.769224557e-17
-1.039125954e-16
-1.386622849e-16
-1.729309106e-16
-2.068576517e-16
-2.40421389e-16
-2.735702097e-16
-3.062468944e-16
-3.383946999e-16
-3.699608154e-16
-4.008953761e-16
-4.311507367e-16
-4.606814478e-16
-4.894439669e-16
-5.173971517e-16
-5.44502104e-16
-5.707225111e-16
-5.960243958e-16
-6.203762406e-16
-6.437488167e-16
-6.661154012e-16
-6.874514818e-16
-7.077348102e-16
-7.269452077e-16
-7.450646273e-16
-7.620768213e-16
-7.779674273e-16
-7.927237349e-16
-8.063345838e-16
-8.187902491e-16
-8.300823517e-16
-8.402036055e-16
-8.491478524e-16
-8.569098661e-16
-8.634851883e-16
-8.688700965e-16
-8.730614698e-16
-8.760568269e-16
-8.778543264e-16
-4.393004678e-16
-1.242080392e-07
1.876587892e-07
1.307068526e-07
1.630782901e-07
3.135963022e-07
3.454357707e-07
7.6825801e-08
-1.216886624e-07
5.947548266e-08
-3.186311861e-17
-6.770857704e-17
-1.039386844e-16
-1.386945886e-16
-1.729764093e-16
-2.069140585e-16
-2.404850743e-16
-2.736405798e-16
-3.063246446e-16
-3.384803856e-16
-3.700542713e-16
-4.009960234e-16
-4.312578685e-16
-4.607944901e-16
-4.895624843e-16
-5.175206746e-16
-5.446303337e-16
-5.708550923e-16
-5.961610056e-16
-6.205165035e-16
-6.438924256e-16
-6.662620034e-16
-6.876007098e-16
-7.078863241e-16
-7.270987285e-16
-7.452197995e-16
-7.622333137e-16
-7.781249149e-16
-7.928818798e-16
-8.064930365e-16
-8.189486465e-16
-8.302403612e-16
-8.403608256e-16
-8.493039771e-16
-8.570645389e-16
-8.636381835e-16
-8.690212528e-16
-8.732107756e-16
-8.76204465e-16
-8.780005762e-16
-4.393718773e-16
-1.491593966e-07
1.110888168e-07
3.155578232e-07
9.453883984e-08
2.262583453e-07
2.7955782e-07
2.768958149e-07
-1.340330578e-08
-6.78705871e-09
-3.187194561e-17
-6.772817811e-17
-1.0396674e-16
-1.387240383e-16
-1.730160044e-16
-2.069664569e-16
-2.405462126e-16
-2.737082613e-16
-3.063986112e-16
-3.385612423e-16
-3.701423262e-16
-4.010909232e-16
-4.313591144e-16
-4.60901531e-16
-4.896748648e-16
-5.176379751e-16
-5.447522076e-16
-5.709811598e-16
-5.962909726e-16
-6.206500391e-16
-6.440292039e-16
-6.664016675e-16
-6.877429328e-16
-7.080308305e-16
-7.272451766e-16
-7.453678672e-16
-7.623827122e-16
-7.782753348e-16
-7.93032965e-16
-8.066445034e-16
-8.191001608e-16
-8.303915607e-16
-8.405114744e-16
-8.494537264e-16
-8.572131712e-16
-8.637854919e-16
-8.691670989e-16
-8.733551471e-16
-8.763474887e-16
-8.781424842e-16
-4.394401935e-16
4.243804178e-08
8.088528751e-08
3.733783454e-07
2.126229163e-07
1.902276446e-07
1.285074712e-07
2.333415848e-07
1.49520191e-07
1.7063467e-08
-3.187733071e-17
-6.77445978e-17
-1.03996074e-16
-1.38755298e-16
-1.730507136e-16
-2.070129316e-16
-2.406029509e-16
-2.737723795e-16
-3.064686792e-16
-3.386373475e-16
-3.702248015e-16
-4.011797667e-16
-4.314539667e-16
-4.61001954e-16
-4.897804309e-16
-5.177483394e-16
-5.4486698e-16
-5.710999727e-16
-5.964134922e-16
-6.20775968e-16
-6.441582039e-16
-6.665334394e-16
-6.87877206e-16
-7.081672533e-16
-7.273835022e-16
-7.455078069e-16
-7.625239794e-16
-7.784176032e-16
-7.931759583e-16
-8.067878836e-16
-8.19243697e-16
-8.305349305e-16
-8.406543959e-16
-8.495959645e-16
-8.573545169e-16
-8.63925775e-16
-8.693062092e-16
-8.734931094e-16
-8.764843043e-16
-8.782783057e-16
-4.395046691e-16
2.854771245e-07
1.28904966e-07
2.733068965e-07
3.375776468e-07
2.201668035e-07
1.213791964e-07
8.129549442e-08
2.703125142e-08
1.163001987e-07
-3.18841447e-17
-6.775406656e-17
-1.040208229e-16
-1.387914497e-16
-1.73084802e-16
-2.07054126e-16
-2.406540002e-16
-2.738315051e-16
-3.06533973e-16
-3.387082366e-16
-3.703014524e-16
-4.012621988e-16
-4.315419529e-16
-4.610951809e-16
-4.898785051e-16
-5.178509536e-16
-5.449737528e-16
-5.712106325e-16
-5.965276758e-16
-6.208933297e-16
-6.442784726e-16
-6.666563634e-16
-6.880024566e-16
-7.08294602e-16
-7.275126486e-16
-7.456385149e-16
-7.626559729e-16
-7.785506129e-16
-7.933097071e-16
-8.069220856e-16
-8.193780471e-16
-8.306692112e-16
-8.407883695e-16
-8.497294084e-16
-8.574872458e-16
-8.640576221e-16
-8.69437143e-16
-8.736230388e-16
-8.76613273e-16
-8.784063776e-16
-4.395644311e-16
3.616508314e-07
2.208694819e-07
1.724889172e-07
3.407048491e-07
2.557721496e-07
2.266090699e-07
4.095793994e-08
-2.421255996e-07
1.485662407e-07
-3.189513515e-17
-6.775918727e-17
-1.040337944e-16
-1.38827577e-16
-1.731205985e-16
-2.070924664e-16
-2.406997075e-16
-2.738847559e-16
-3.06593498e-16
-3.387732683e-16
-3.703717213e-16
-4.013377092e-16
-4.316225715e-16
-4.611805982e-16
-4.899684555e-16
-5.179450874e-16
-5.450717824e-16
-5.71312257e-16
-5.966325818e-16
-6.210011889e-16
-6.443890694e-16
-6.667693519e-16
-6.881176617e-16
-7.084117643e-16
-7.276315429e-16
-7.457588634e-16
-7.627775262e-16
-7.786731463e-16
-7.93432965e-16
-8.070458076e-16
-8.195020061e-16
-8.307931546e-16
-8.409121022e-16
-8.498527215e-16
-8.576099976e-16
-8.641796668e-16
-8.695583993e-16
-8.737434089e-16
-8.767328213e-16
-8.785251239e-16
-4.396187342e-16
2.09648145e-07
2.521628044e-07
1.549020578e-07
2.577881266e-07
2.753744e-07
2.607710777e-07
1.733147421e-07
-2.683113805e-07
5.352657128e-09
-3.190918635e-17
-6.776974026e-17
-1.040389023e-16
-1.388566188e-16
-1.73156442e-16
-2.071300775e-16
-2.407417149e-16
-2.739323901e-16
-3.066467596e-16
-3.388316918e-16
-3.704349939e-16
-4.014057124e-16
-4.316951819e-16
-4.612575943e-16
-4.900495478e-16
-5.180299806e-16
-5.451602362e-16
-5.714039513e-16
-5.967272481e-16
-6.210986135e-16
-6.444889146e-16
-6.668714388e-16
-6.882217377e-16
-7.085176162e-16
-7.277389701e-16
-7.458676742e-16
-7.628874681e-16
-7.787840011e-16
-7.935445138e-16
-8.071578418e-16
-8.196142931e-16
-8.309054584e-16
-8.410242341e-16
-8.499645382e-16
-8.5772131e-16
-8.642903888e-16
-8.696684234e-16
-8.738527668e-16
-8.768413613e-16
-8.786328861e-16
-4.39666771e-16
1.744298735e-08
1.981438434e-07
1.936206705e-07
1.970147764e-07
2.371112422e-07
1.383117673e-07
4.575823447e-07
2.461075551e-07
-1.750444378e-07
-3.191863961e-17
-6.77898268e-17
-1.040468391e-16
-1.388741242e-16
-1.731862218e-16
-2.07164938e-16
-2.407801774e-16
-2.739748555e-16
-3.066936757e-16
-3.38883085e-16
-3.704907128e-16
-4.014656441e-16
-4.317591838e-16
-4.613254914e-16
-4.901210837e-16
-5.181049126e-16
-5.452382566e-16
-5.714848618e-16
-5.968107847e-16
-6.211845618e-16
-6.445770463e-16
-6.669615322e-16
-6.88313632e-16
-7.086110952e-16
-7.278338562e-16
-7.459637442e-16
-7.629846065e-16
-7.788819732e-16
-7.936431049e-16
-8.072568484e-16
-8.197135181e-16
-8.310047578e-16
-8.41123409e-16
-8.500634285e-16
-8.578198143e-16
-8.643883845e-16
-8.697658113e-16
-8.739494702e-16
-8.769373853e-16
-8.787281796e-16
-4.397078078e-16
-6.076179267e-08
1.344806631e-07
2.285751978e-07
2.390125513e-07
2.218930835e-07
-6.836831581e-08
3.144400264e-07
9.03875696e-07
-1.247359616e-07
-3.191778887e-17
-6.781249257e-17
-1.040678466e-16
-1.388859239e-16
-1.732073381e-16
-2.071934211e-16
-2.408130334e-16
-2.740112006e-16
-3.067337715e-16
-3.38926987e-16
-3.705383429e-16
-4.015168695e-16
-4.318139495e-16
-4.613835755e-16
-4.901822915e-16
-5.181689837e-16
-5.453050167e-16
-5.715540681e-16
-5.968822581e-16
-6.21258063e-16
-6.446524192e-16
-6.670386021e-16
-6.883922113e-16
-7.086910591e-16
-7.279150195e-16
-7.460459958e-16
-7.630677233e-16
-7.789657988e-16
-7.937274567e-16
-8.073416001e-16
-8.197984646e-16
-8.310897213e-16
-8.41208272e-16
-8.501480906e-16
-8.579041029e-16
-8.644721615e-16
-8.6984907e-16
-8.740321081e-16
-8.770193744e-16
-8.788094641e-16
-4.39741104e-16
-4.5842901e-08
9.692110852e-08
2.18083664e-07
3.260066078e-07
3.630233308e-07
-1.513000079e-08
-2.391778036e-07
1.024586347e-06
2.190306876e-07
-3.19104141e-17
-6.782159787e-17
-1.040967249e-16
-1.389014415e-16
-1.732248748e-16
-2.07215963e-16
-2.408391887e-16
-2.740404136e-16
-3.06766156e-16
-3.389626873e-16
-3.705772745e-16
-4.015588003e-16
-4.318587714e-16
-4.614311378e-16
-4.902324377e-16
-5.182215126e-16
-5.453597037e-16
-5.716107374e-16
-5.969407011e-16
-6.213181802e-16
-6.447140541e-16
-6.671016132e-16
-6.884564584e-16
-7.087564309e-16
-7.27981364e-16
-7.461131944e-16
-7.631356219e-16
-7.790342767e-16
-7.937963939e-16
-8.074108112e-16
-8.19867826e-16
-8.311591044e-16
-8.41277513e-16
-8.502170938e-16
-8.579727418e-16
-8.645404374e-16
-8.69916792e-16
-8.740992695e-16
-8.770859005e-16
-8.788753616e-16
-4.397660112e-16
-2.190576462e-08
8.729845327e-08
1.682090847e-07
2.967338348e-07
4.659313084e-07
3.902619289e-07
-6.260648815e-07
2.40140458e-07
5.191427705e-07
-3.190804727e-17
-6.781366683e-17
-1.041144764e-16
-1.389176169e-16
-1.73241513e-16
-2.072345264e-16
-2.408592643e-16
-2.740622865e-16
-3.067902853e-16
-3.389894865e-16
-3.706067287e-16
-4.015907652e-16
-4.318930348e-16
-4.614675238e-16
-4.902707531e-16
-5.182616312e-16
-5.454014541e-16
-5.716539523e-16
-5.96985279e-16
-6.213639984e-16
-6.447609808e-16
-6.671495621e-16
-6.885053574e-16
-7.08806156e-16
-7.280318192e-16
-7.461642437e-16
-7.631872267e-16
-7.790862637e-16
-7.938486554e-16
-8.074632609e-16
-8.199203335e-16
-8.312115941e-16
-8.413298658e-16
-8.502691702e-16
-8.58024491e-16
-8.645917443e-16
-8.6996763e-16
-8.741495694e-16
-8.771356293e-16
-8.789244392e-16
-4.397818431e-16
-4.102135712e-08
1.029435463e-07
1.610297314e-07
1.871988768e-07
3.641237568e-07
9.183211647e-07
-2.281226438e-07
-5.525191503e-07
4.126113884e-07
-3.191523745e-17
-6.781039626e-17
-1.041189406e-16
-1.389287157e-16
-1.732551372e-16
-2.072491977e-16
-2.408739416e-16
-2.740772726e-16
-3.068062242e-16
-3.390070679e-16
-3.706262158e-16
-4.016121237e-16
-4.319160371e-16
-4.614919911e-16
-4.902965414e-16
-5.182885916e-16
-5.454294728e-16
-5.716829274e-16
-5.970151111e-16
-6.213945771e-16
-6.447922932e-16
-6.671815364e-16
-6.885379317e-16
-7.088392138e-16
-7.280653275e-16
-7.461981508e-16
-7.632213747e-16
-7.791206576e-16
-7.938831938e-16
-8.074978471e-16
-8.199548734e-16
-8.312459952e-16
-8.413640516e-16
-8.503030869e-16
-8.580580801e-16
-8.646248984e-16
-8.70000322e-16
-8.74181742e-16
-8.771672222e-16
-8.789554392e-16
-4.397880014e-16
-1.065189886e-07
9.507665085e-08
2.300329083e-07
1.148084757e-07
-6.188689616e-10
9.365794074e-07
5.721622543e-07
-3.585309589e-07
9.884530898e-08
-3.192275125e-17
-6.782038752e-17
-1.041203221e-16
-1.389347382e-16
-1.732631338e-16
-2.072584045e-16
-2.408829085e-16
-2.740855999e-16
-3.068141768e-16
-3.390154215e-16
-3.706354515e-16
-4.016223709e-16
-4.319272059e-16
-4.615039286e-16
-4.903091073e-16
-5.183016942e-16
-5.454430072e-16
-5.716968699e-16
-5.97029388e-16
-6.214091447e-16
-6.448071444e-16
-6.67196625e-16
-6.885532455e-16
-7.088547206e-16
-7.280809758e-16
-7.46213841e-16
-7.632371547e-16
-7.791364084e-16
-7.938988549e-16
-8.075134367e-16
-8.199703124e-16
-8.312611919e-16
-8.41378999e-16
-8.503176971e-16
-8.58072302e-16
-8.646387264e-16
-8.70013664e-16
-8.741945701e-16
-8.771795179e-16
-8.789671631e-16
-4.397839594e-16
-1.756625564e-07
4.496760605e-09
2.772605269e-07
2.033587806e-07
-3.155342945e-07
2.078469248e-07
6.123445286e-07
1.519692545e-07
-7.405750388e-08
-3.192511219e-17
-6.783261074e-17
-1.04123342e-16
-1.389380606e-16
-1.732643601e-16
-2.072600281e-16
-2.408848075e-16
-2.740868021e-16
-3.068141781e-16
-3.390145642e-16
-3.706342559e-16
-4.016211171e-16
-4.319259969e-16
-4.615027303e-16
-4.903078302e-16
-5.183002444e-16
-5.45441386e-16
-5.71695029e-16
-5.970273533e-16
-6.214069123e-16
-6.448047081e-16
-6.671940297e-16
-6.885504794e-16
-7.088517639e-16
-7.280778131e-16
-7.462104918e-16
-7.632335356e-16
-7.791325614e-16
-7.938947697e-16
-8.075090342e-16
-8.199656237e-16
-8.312562184e-16
-8.413736247e-16
-8.503119453e-16
-8.580661294e-16
-8.646320859e-16
-8.700065788e-16
-8.741869858e-16
-8.77171418e-16
-8.789585432e-16
-4.397691999e-16
-1.866056045e-07
-1.332329789e-07
1.458292766e-07
3.453968243e-07
-1.877704586e-07
-4.786813354e-07
2.74825244e-08
2.073146226e-07
-8.536071117e-08
-3.19252563e-17
-6.783747714e-17
-1.041252753e-16
-1.389396056e-16
-1.732597468e-16
-2.072532022e-16
-2.408781617e-16
-2.740796063e-16
-3.068055988e-16
-3.390042709e-16
-3.706224283e-16
-4.016081052e-16
-4.319120475e-16
-4.614878978e-16
-4.902921572e-16
-5.182837116e-16
-5.454240181e-16
-5.716768412e-16
-5.970083658e-16
-6.213871961e-16
-6.447843184e-16
-6.671730229e-16
-6.885288479e-16
-7.088296035e-16
-7.280550639e-16
-7.461871967e-16
-7.632097628e-16
-7.791082568e-16
-7.938700101e-16
-8.074837918e-16
-8.199399442e-16
-8.312300551e-16
-8.413470678e-16
-8.502848836e-16
-8.580386083e-16
-8.646041178e-16
-8.699780877e-16
-8.74158004e-16
-8.771419431e-16
-8.789285608e-16
-4.397433023e-16
-1.226270443e-07
-1.942141209e-07
-1.57499359e-07
2.164963877e-07
1.23211028e-07
-6.306062639e-07
-4.290173166e-07
-2.465090134e-08
-3.914323652e-08
-3.192599532e-17
-6.783366319e-17
-1.041210297e-16
-1.389369971e-16
-1.732505161e-16
-2.072388551e-16
-2.408624575e-16
-2.740630873e-16
-3.067875397e-16
-3.389839016e-16
-3.7059962e-16
-4.015830549e-16
-4.318849858e-16
-4.614590478e-16
-4.902616203e-16
-5.182515761e-16
-5.453903505e-16
-5.716417074e-16
-5.969718553e-16
-6.213494174e-16
-6.447453111e-16
-6.671329109e-16
-6.884877249e-16
-7.087874789e-16
-7.280120332e-16
-7.461432819e-16
-7.631649976e-16
-7.790627447e-16
-7.938237954e-16
-8.074369145e-16
-8.198924315e-16
-8.311819596e-16
-8.41298381e-16
-8.502356839e-16
-8.579888873e-16
-8.645538706e-16
-8.699273401e-16
-8.741067892e-16
-8.770902353e-16
-8.788763783e-16
-4.397059398e-16
-4.354839389e-08
-1.088793858e-07
-3.710182814e-07
-1.440487889e-07
1.948833246e-07
-4.545563124e-07
-5.166261398e-07
-2.607756655e-07
-4.835091378e-08
-3.192744371e-17
-6.782612182e-17
-1.041093526e-16
-1.3892667e-16
-1.73236962e-16
-2.072185959e-16
-2.408384435e-16
-2.740368573e-16
-3.067592371e-16
-3.389528336e-16
-3.705653107e-16
-4.015455612e-16
-4.318445445e-16
-4.614158658e-16
-4.902158603e-16
-5.182034192e-16
-5.453399489e-16
-5.715891793e-16
-5.969173494e-16
-6.212930305e-16
-6.446872192e-16
-6.670731753e-16
-6.884264851e-16
-7.087248261e-16
-7.279481042e-16
-7.46078142e-16
-7.630987079e-16
-7.789953952e-16
-7.937554649e-16
-8.073676957e-16
-8.198224217e-16
-8.311111964e-16
-8.412269514e-16
-8.501636242e-16
-8.579162325e-16
-8.644806362e-16
-8.698536168e-16
-8.740325596e-16
-8.770155437e-16
-8.788012814e-16
-4.396567349e-16
-3.622104421e-08
9.140250988e-09
-3.53438229e-07
-4.101819746e-07
4.021393693e-08
-3.00580486e-07
-3.440843414e-07
-2.15511431e-07
-8.218517429e-08
-3.192639238e-17
-6.781838448e-17
-1.040932473e-16
-1.389061178e-16
-1.732176562e-16
-2.071935829e-16
-2.408074218e-16
-2.740015769e-16
-3.067205644e-16
-3.389105841e-16
-3.705191098e-16
-4.014953012e-16
-4.317903903e-16
-4.613580455e-16
-4.901546057e-16
-5.181389698e-16
-5.452724701e-16
-5.715188998e-16
-5.968444313e-16
-6.212176527e-16
-6.446095672e-16
-6.669933902e-16
-6.883446992e-16
-7.08641203e-16
-7.278627478e-16
-7.459912095e-16
-7.63010308e-16
-7.789056765e-16
-7.936645226e-16
-8.072756512e-16
-8.197293699e-16
-8.310172776e-16
-8.411321985e-16
-8.500681504e-16
-8.578200758e-16
-8.643839178e-16
-8.697563289e-16
-8.739347885e-16
-8.769173324e-16
-8.787026503e-16
-4.395955253e-16
-1.076397264e-07
3.057317562e-08
-2.140531575e-07
-4.210503265e-07
-1.000638204e-07
-2.7015154e-07
-1.911831301e-07
1.908250528e-08
-5.707210066e-08
-3.192075293e-17
-6.780897789e-17
-1.040765834e-16
-1.388754671e-16
-1.731896263e-16
-2.071623162e-16
-2.407695751e-16
-2.73957825e-16
-3.06671829e-16
-3.388570491e-16
-3.704606833e-16
-4.014319371e-16
-4.317222686e-16
-4.612853602e-16
-4.900776078e-16
-5.180579493e-16
-5.451877177e-16
-5.714306282e-16
-5.967528507e-16
-6.211229901e-16
-6.445120059e-16
-6.66893197e-16
-6.882420146e-16
-7.08536206e-16
-7.277556331e-16
-7.458821027e-16
-7.628994482e-16
-7.78793167e-16
-7.935504984e-16
-8.07160346e-16
-8.196128762e-16
-8.308996905e-16
-8.410137086e-16
-8.49948787e-16
-8.576999848e-16
-8.642631757e-16
-8.696349987e-16
-8.738129553e-16
-8.767950805e-16
-8.785800424e-16
-4.395221081e-16
-1.832899889e-07
-2.683232597e-08
-9.150410374e-08
-2.499406986e-07
-7.896996804e-08
-2.043737427e-07
-1.562809794e-07
1.942940644e-07
3.741200843e-08
-3.19108787e-17
-6.77957418e-17
-1.040615945e-16
-1.388398365e-16
-1.731521857e-16
-2.071224584e-16
-2.407235738e-16
-2.739052555e-16
-3.066130282e-16
-3.387922743e-16
-3.703899821e-16
-4.013554066e-16
-4.316400093e-16
-4.611976544e-16
-4.899847792e-16
-5.179602512e-16
-5.450854502e-16
-5.713241386e-16
-5.96642401e-16
-6.210088327e-16
-6.443943863e-16
-6.667723227e-16
-6.881181599e-16
-7.084095945e-16
-7.276264725e-16
-7.457505889e-16
-7.627657862e-16
-7.786575689e-16
-7.934131768e-16
-8.070214563e-16
-8.194725831e-16
-8.307581895e-16
-8.40871085e-16
-8.498052559e-16
-8.575556386e-16
-8.64118066e-16
-8.694893552e-16
-8.736667884e-16
-8.766484939e-16
-8.784331261e-16
-4.39436422e-16
-2.009558095e-07
-6.590873447e-08
-1.976914561e-08
-6.454552358e-08
4.529686989e-08
1.285525985e-08
-1.282238402e-07
2.592214927e-07
2.249451256e-07
-3.189872503e-17
-6.777644322e-17
-1.040442341e-16
-1.388056632e-16
-1.731090078e-16
-2.070739892e-16
-2.40668613e-16
-2.738433419e-16
-3.065440754e-16
-3.387162752e-16
-3.703070493e-16
-4.012656206e-16
-4.315435979e-16
-4.610948837e-16
-4.898759766e-16
-5.178458135e-16
-5.4496572e-16
-5.711993986e-16
-5.965129958e-16
-6.208750524e-16
-6.442565449e-16
-6.666306845e-16
-6.879730052e-16
-7.082612166e-16
-7.274750932e-16
-7.455965162e-16
-7.626092143e-16
-7.784987765e-16
-7.932523708e-16
-8.068588351e-16
-8.193083864e-16
-8.305925843e-16
-8.40704261e-16
-8.496373686e-16
-8.573868368e-16
-8.639485071e-16
-8.693191404e-16
-8.734960631e-16
-8.764773572e-16
-8.782617282e-16
-4.393384227e-16
-1.610726988e-07
-3.443834361e-08
4.753017712e-08
4.860021566e-08
1.589714303e-07
3.447747615e-07
-1.050949368e-07
2.086259796e-08
3.939421757e-07
-3.188961339e-17
-6.775276097e-17
-1.040160247e-16
-1.387720451e-16
-1.730624055e-16
-2.070178088e-16
-2.406045805e-16
-2.737717008e-16
-3.064647068e-16
-3.38628999e-16
-3.702118488e-16
-4.01162642e-16
-4.314329968e-16
-4.609770724e-16
-4.897512788e-16
-5.17714645e-16
-5.448284358e-16
-5.71056402e-16
-5.963646275e-16
-6.207216643e-16
-6.44098476e-16
-6.664682554e-16
-6.878065577e-16
-7.080910363e-16
-7.273015084e-16
-7.454198418e-16
-7.624297153e-16
-7.783167212e-16
-7.930680363e-16
-8.066724581e-16
-8.191202109e-16
-8.304028463e-16
-8.405131559e-16
-8.494450751e-16
-8.571935445e-16
-8.63754409e-16
-8.691243455e-16
-8.733007341e-16
-8.762816608e-16
-8.780657562e-16
-4.39228109e-16
-1.026051375e-07
3.491109457e-08
1.342112262e-07
1.189994437e-07
2.526768167e-07
5.765967236e-07
1.487160451e-08
-2.864849981e-07
3.925649443e-07
-3.188645759e-17
-6.773021847e-17
-1.039769086e-16
-1.38735662e-16
-1.730129329e-16
-2.069552974e-16
-2.405320973e-16
-2.736904869e-16
-3.063748596e-16
-3.385304284e-16
-3.701044459e-16
-4.010464986e-16
-4.313083724e-16
-4.608442927e-16
-4.896107798e-16
-5.175668261e-16
-5.446737324e-16
-5.70895216e-16
-5.961973506e-16
-6.205487501e-16
-6.439202626e-16
-6.662851169e-16
-6.876188319e-16
-7.078991449e-16
-7.271057884e-16
-7.45220633e-16
-7.622273358e-16
-7.781115061e-16
-7.928602757e-16
-8.064624354e-16
-8.189081493e-16
-8.301890558e-16
-8.402978567e-16
-8.492285044e-16
-8.569758618e-16
-8.635358329e-16
-8.689050444e-16
-8.730809297e-16
-8.760614444e-16
-8.778453282e-16
-4.391056565e-16
-5.472971591e-08
8.452588172e-08
2.09815293e-07
2.039600375e-07
3.345319218e-07
4.81027165e-07
3.28279861e-07
-1.445812449e-07
1.957173595e-07
-3.188416319e-17
-6.770976004e-17
-1.039310903e-16
-1.386915821e-16
-1.729582886e-16
-2.068870251e-16
-2.404521829e-16
-2.736003604e-16
-3.062749066e-16
-3.384206791e-16
-3.699849207e-16
-4.009173035e-16
-4.311697754e-16
-4.606966701e-16
-4.894546238e-16
-5.174025388e-16
-5.445017813e-16
-5.707160379e-16
-5.960114086e-16
-6.203564549e-16
-6.43722055e-16
-6.660814552e-16
-6.874101092e-16
-7.07685775e-16
-7.268881426e-16
-7.449990745e-16
-7.620023322e-16
-7.778832951e-16
-7.926292708e-16
-8.062289148e-16
-8.186724443e-16
-8.299514212e-16
-8.400585397e-16
-8.489877721e-16
-8.567339619e-16
-8.632929788e-16
-8.686614307e-16
-8.728367649e-16
-8.758169071e-16
-8.776005714e-16
-4.389711531e-16
-2.009047081e-08
9.046041435e-08
2.366573957e-07
3.348843008e-07
4.63925855e-07
5.877265307e-08
3.976490653e-07
3.244081043e-07
-5.140810938e-08
-3.187642498e-17
-6.769421213e-17
-1.038890718e-16
-1.386392914e-16
-1.728952686e-16
-2.06811641e-16
-2.403649341e-16
-2.735017402e-16
-3.061652247e-16
-3.383000533e-16
-3.698534664e-16
-4.007752392e-16
-4.310174291e-16
-4.60534428e-16
-4.892829666e-16
-5.172219724e-16
-5.443127737e-16
-5.705190703e-16
-5.958069871e-16
-6.201450377e-16
-6.435041512e-16
-6.658574997e-16
-6.87180597e-16
-7.074511078e-16
-7.266488422e-16
-7.447555081e-16
-7.617549223e-16
-7.776324707e-16
-7.92375337e-16
-8.059722351e-16
-8.184133787e-16
-8.296902238e-16
-8.397955564e-16
-8.48723257e-16
-8.564681659e-16
-8.630261769e-16
-8.683938601e-16
-8.725685684e-16
-8.755483595e-16
-8.773318802e-16
-4.388248563e-16
1.422782822e-08
6.983879593e-08
1.822053253e-07
4.061904174e-07
6.808893096e-07
-2.312019443e-07
1.257141742e-07
6.833346393e-07
-9.720739007e-08
-3.18601817e-17
-6.767462577e-17
-1.0385523e-16
-1.38585022e-16
-1.728259965e-16
-2.067293977e-16
-2.402702906e-16
-2.733948384e-16
-3.060461075e-16
-3.381688457e-16
-3.697103418e-16
-4.006205017e-16
-4.308515283e-16
-4.603578301e-16
-4.890961313e-16
-5.170254172e-16
-5.441069961e-16
-5.703046283e-16
-5.955844239e-16
-6.199148724e-16
-6.43266847e-16
-6.656136463e-16
-6.869306927e-16
-7.071956179e-16
-7.263882719e-16
-7.444903516e-16
-7.614855542e-16
-7.773593531e-16
-7.920988807e-16
-8.056928281e-16
-8.181313282e-16
-8.294059419e-16
-8.395093107e-16
-8.484353621e-16
-8.561789275e-16
-8.627358237e-16
-8.681026547e-16
-8.722767684e-16
-8.752562116e-16
-8.770395509e-16
-4.386669436e-16
5.622484487e-08
6.813455112e-08
6.849836698e-08
3.090827553e-07
7.479195229e-07
-2.46597246e-07
-2.869355358e-07
5.441993677e-07
5.036044324e-08
-3.184104738e-17
-6.76414189e-17
-1.038173335e-16
-1.385281141e-16
-1.727523606e-16
-2.06641529e-16
-2.401688469e-16
-2.732799213e-16
-3.059177579e-16
-3.380272541e-16
-3.695558287e-16
-4.0045345e-16
-4.306723849e-16
-4.601671331e-16
-4.888943647e-16
-5.168131689e-16
-5.438848265e-16
-5.70073099e-16
-5.953440786e-16
-6.196662903e-16
-6.430106445e-16
-6.653503095e-16
-6.866607929e-16
-7.069197367e-16
-7.261068833e-16
-7.442039795e-16
-7.61194723e-16
-7.77064459e-16
-7.918004023e-16
-8.05391145e-16
-8.178268376e-16
-8.290990004e-16
-8.392002845e-16
-8.481245737e-16
-8.558666996e-16
-8.624224151e-16
-8.677883802e-16
-8.719618721e-16