/*--------------------------------*- C++ -*----------------------------------*\
  =========                 |
  \\      /  F ield         | OpenFOAM: The Open Source CFD Toolbox
   \\    /   O peration     | Website:  https://openfoam.org
    \\  /    A nd           | Version:  6
     \\/     M anipulation  |
\*---------------------------------------------------------------------------*/
FoamFile
{
    version     2.0;
    format      ascii;
    class       volScalarField;
    location    "0.06";
    object      p_rgh;
}
// * * * * * * * * * * * * * * * * * * * * * * * * * * * * * * * * * * * * * //

dimensions      [1 -1 -2 0 0 0 0];

internalField   nonuniform List<scalar> 
2500
(
0.2549319512
0.3129224453
0.3574254891
0.325936609
0.2932759389
0.2666266574
0.2532135488
0.2593019669
27276.36699
27326.17119
27375.44131
27423.88986
27471.13668
27516.8429
27560.71886
27602.52936
27642.09566
27679.29465
27714.0556
27746.35523
27776.21156
27803.67721
27828.83263
27851.77957
27872.63511
27891.52637
27908.58598
27923.94833
27937.74658
27950.11029
27961.16371
27971.02455
27979.80315
27987.60204
27994.51573
28000.63073
28006.02571
28010.77175
28014.93273
28018.56567
28021.72113
28024.44364
28026.77206
28028.73997
28030.37597
28031.70403
28032.74369
28033.51033
28034.01529
28034.26602
0.2222283095
0.3112793657
0.3519744611
0.3185764939
0.2804228315
0.2536160895
0.2408242405
0.2469838238
27276.35389
27326.58339
27376.26313
27425.09143
27472.67714
27518.67301
27562.7842
27604.77348
27644.46295
27681.73269
27716.51699
27748.79867
27778.60245
27805.98771
27831.04144
27853.87135
27874.59982
27893.35849
27910.28375
27925.51299
27939.1817
27951.42119
27962.35694
27972.10745
27980.78355
27988.48795
27995.31515
28001.35149
28006.67538
28011.35758
28015.46155
28019.04393
28022.15487
28024.83853
28027.13339
28029.07269
28030.68475
28031.99326
28033.01755
28033.77284
28034.27036
28034.51759
0.1523605453
0.283030489
0.3227014671
0.2912600411
0.2478669676
0.2259056177
0.2158848042
0.2226892655
27276.32913
27327.4253
27377.9367
27427.53557
27475.80741
27522.38781
27566.97152
27609.31753
27649.25014
27686.65647
27721.48138
27753.72048
27783.41237
27810.63039
27835.47477
27858.06536
27878.53519
27897.02495
27913.6785
27928.6392
27942.04712
27954.03695
27964.73656
27974.26597
27982.73688
27990.25231
27996.9067
28002.78603
28007.96811
28012.52299
28016.51336
28019.99502
28023.01734
28025.62365
28027.85172
28029.73412
28031.29854
28032.56818
28033.56191
28034.2946
28034.77723
28035.01706
0.06391425242
0.2157264565
0.2649749254
0.2369591481
0.196024423
0.1827930865
0.1793003419
0.1867493759
27276.29361
27328.72954
27380.5231
27431.30665
27480.62903
27528.09925
27573.3965
27616.27501
27656.56371
27694.16188
27729.03183
27761.18988
27790.69662
27817.64723
27842.16249
27864.38081
27884.45135
27902.52842
27918.76696
27933.31909
27946.33156
27957.94392
27968.28738
27977.48406
27985.64675
27992.87882
27999.27446
28004.91897
28009.88921
28014.2541
28018.07508
28021.4067
28024.29705
28026.78827
28028.917
28030.71479
28032.20842
28033.42028
28034.36861
28035.06772
28035.52819
28035.75701
0.0006789066902
0.1380131962
0.1836652828
0.1650766036
0.1342315069
0.1268123506
0.1333122291
0.1416115702
27276.25266
27330.54942
27384.11978
27436.53875
27487.30266
27535.98351
27582.24016
27625.82231
27666.5679
27704.39567
27739.29445
27771.31096
27800.53746
27827.09994
27851.14776
27872.84471
27892.36173
27909.87122
27925.54268
27939.53955
27952.01704
27963.12077
27972.98597
27981.73718
27989.4883
27996.34286
28002.39446
28007.7273
28012.41682
28016.53028
28020.12737
28023.26086
28025.9771
28028.31661
28030.31448
28032.00086
28033.40133
28034.5372
28035.42581
28036.08076
28036.51209
28036.72643
-0.02048469874
0.08805537091
0.1092817668
0.09216293765
0.06464958584
0.06869525656
0.08596334596
0.09225092971
27276.20998
27332.96167
27388.86808
27443.42569
27496.05911
27546.29177
27593.75819
27638.20609
27679.48996
27717.55861
27752.43958
27784.22242
27813.04276
27839.06787
27862.48454
27883.48923
27902.28039
27919.05286
27933.99384
27947.28028
27959.07723
27969.53714
27978.79957
27986.99143
27994.22748
28000.61095
28006.23432
28011.1801
28015.52167
28019.324
28022.64446
28025.53346
28028.03512
28030.18781
28032.02468
28033.57411
28034.86011
28035.90264
28036.71794
28037.31869
28037.71426
28037.91084
-0.01372218552
0.07366651037
0.06497583264
0.031622822
0.00613331195
0.02713023242
0.047808357
0.04983278705
27276.17455
27336.07377
27394.96536
27452.23646
27507.21598
27559.36597
27608.29448
27653.75378
27695.62723
27733.90938
27768.68308
27800.09677
27828.34376
27853.6448
27876.23397
27896.348
27914.21853
27930.06683
27944.10044
27956.5114
27967.47543
27977.15197
27985.68474
27993.20254
27999.82032
28005.64025
28010.75289
28015.23826
28019.16689
28022.60076
28025.59419
28028.19462
28030.44334
28032.37607
28034.02357
28035.41204
28036.56361
28037.4966
28038.22588
28038.76307
28039.11672
28039.29247
-0.00217120516
0.07056408826
0.04805909089
0.001767933808
-0.01775163691
0.01137784592
0.02774831621
0.02731557026
27276.16051
27340.03383
27402.68315
27463.3383
27521.20184
27575.66117
27626.29965
27672.88711
27715.35575
27753.7687
27788.28688
27819.1382
27846.59124
27870.93421
27892.45922
27911.45102
27928.17972
27942.89633
27955.83061
27967.1904
27977.16208
27985.91158
27993.58591
28000.31474
28006.21207
28011.37792
28015.89984
28019.85431
28023.30804
28026.31915
28028.93811
28031.2087
28033.16875
28034.8508
28036.28272
28037.48814
28038.48694
28039.29553
28039.92719
28040.39226
28040.69836
28040.85049
-0.001993919149
0.04610953501
0.02948271868
-0.005688529624
-0.01343428544
0.01892465379
0.02815203568
0.02824660799
27276.1707
27345.04385
27412.3949
27477.23097
27538.59115
27595.77652
27648.35532
27696.13894
27739.13987
27777.52289
27811.55781
27841.57835
27867.94932
27891.04226
27911.21841
27928.81795
27944.15385
27957.50906
27969.13618
27979.25848
27988.07188
27995.74738
28002.43363
28008.25948
28013.33638
28017.76064
28021.61537
28024.97222
28027.89298
28030.43085
28032.63159
28034.53453
28036.17337
28037.5769
28038.76959
28039.77212
28040.60173
28041.27266
28041.79635
28042.1817
28042.43525
28042.56128
-0.01359370951
-0.01144181833
-0.02293236134
-0.02420391709
-0.004430148507
0.03402217017
0.04614399083
0.0461185599
27276.20259
27351.38957
27424.62114
27494.59836
27560.15415
27620.49747
27675.20546
27724.17306
27767.54175
27805.62531
27838.84347
27867.66856
27892.58608
27914.0678
27932.555
27948.44939
27962.10955
27973.85081
27983.94754
27992.63644
28000.1206
28006.57346
28012.1428
28016.95422
28021.11442
28024.71401
28027.82988
28030.52737
28032.86197
28034.88085
28036.62407
28038.12567
28039.41453
28040.51507
28041.44789
28042.23025
28042.87647
28043.3983
28043.80512
28044.10422
28044.30093
28044.39875
-0.02440318981
-0.07542791649
-0.1043400639
-0.08042621056
-0.0250673357
0.03090871124
0.07231116472
0.04893444005
27276.25203
27359.49702
27440.10071
27516.38545
27586.92797
27650.85243
27707.79507
27757.80555
27801.22863
27838.59332
27870.52262
27897.66693
27920.65937
27940.0887
27956.48526
27970.31599
27981.98508
27991.83809
28000.1677
28007.22016
28013.20162
28018.28412
28022.61093
28026.30125
28029.45418
28032.15218
28034.4639
28036.44655
28038.14785
28039.60767
28040.85935
28041.93076
28042.84521
28043.62217
28044.27788
28044.82576
28045.27687
28045.64019
28045.92287
28046.1304
28046.26679
28046.33466
-0.03212533147
-0.1062154175
-0.1628712991
-0.1489996735
-0.07326649952
0.005151216608
0.06399601328
-0.03231584664
27276.52658
27370.03359
27459.8973
27543.91217
27620.31749
27688.18739
27747.31565
27798.02489
27840.97382
27876.99703
27906.98733
27931.81792
27952.29665
27969.1433
27982.98235
27994.34523
28003.67771
28011.34977
28017.66604
28022.8759
28027.18263
28030.75151
28033.71663
28036.18673
28038.24995
28039.97774
28041.42812
28042.64821
28043.67636
28044.54381
28045.27608
28045.894
28046.41459
28046.85177
28047.21692
28047.51928
28047.76631
28047.964
28048.11703
28048.22899
28048.30245
28048.33909
-0.03838289556
-0.0997632916
-0.1584859823
-0.1678133228
-0.09820730147
-0.02765462499
-0.01946626354
-0.1774076545
27277.59837
27383.92955
27485.53891
27579.04443
27662.23905
27734.26158
27795.25388
27846.004
27887.64482
27921.43419
27948.61255
27970.32176
27987.56707
28001.20657
28011.95669
28020.40594
28027.03183
28032.21831
28036.27186
28039.43581
28041.90255
28043.8237
28045.31841
28046.48018
28047.38222
28048.08182
28048.62374
28049.04294
28049.3667
28049.61631
28049.80835
28049.95576
28050.06857
28050.15463
28050.22
28050.26936
28050.30635
28050.33372
28050.35354
28050.36734
28050.3762
28050.38078
-0.04243663361
-0.0782598576
-0.1127808445
-0.1228627675
-0.07203383691
-0.0472135616
-0.1413648529
-0.2595362095
27276.91998
27402.10165
27519.27573
27624.48101
27715.3279
27791.36301
27853.43288
27903.09212
27942.16774
27972.48331
27995.70808
28013.29076
28026.44458
28036.16048
28043.23314
28048.29117
28051.82651
28054.22088
28055.76834
28056.69399
28057.16913
28057.32338
28057.2542
28057.03443
28056.71803
28056.34468
28055.94319
28055.53423
28055.13235
28054.74753
28054.38644
28054.05329
28053.75053
28053.4794
28053.24029
28053.03307
28052.85726
28052.71223
28052.59732
28052.51191
28052.45549
28052.42769
-0.04573170211
-0.061707666
-0.07178169293
-0.06461610364
-0.03396498343
-0.05582836407
-0.2135395115
-0.0726293593
27277.35611
27427.57842
27564.97041
27684.26645
27783.22225
27862.4264
27924.02143
27970.76423
28005.45189
28030.62475
28048.44738
28060.69026
28068.76158
28073.75908
28076.52557
28077.70034
28077.76334
28077.0715
28075.88773
28074.40374
28072.75765
28071.04753
28069.34165
28067.68635
28066.11186
28064.63675
28063.27122
28062.01958
28060.88206
28059.85619
28058.93777
28058.12161
28057.40206
28056.77336
28056.22994
28055.7666
28055.37862
28055.06188
28054.81286
28054.62876
28054.50742
28054.44743
-0.05127515717
-0.05722729017
-0.05588262578
-0.04153288706
-0.02430328537
-0.077191544
-0.1907192585
0.4545227549
27279.15458
27464.84162
27628.74436
27764.37813
27870.86067
27951.09607
28009.46229
28050.49312
28078.2531
28096.11883
28106.76873
28112.2634
28114.15425
28113.59033
28111.41117
28108.2226
28104.45624
28100.41517
28096.30842
28092.27665
28088.41126
28084.76846
28081.37957
28078.25852
28075.40738
28072.82032
28070.48646
28068.39191
28066.52125
28064.85854
28063.388
28062.09451
28060.96393
28059.98324
28059.14073
28058.42599
28057.83
28057.34504
28056.96476
28056.68409
28056.49927
28056.4078
-0.06063250745
-0.06313732993
-0.06085801649
-0.05623467071
-0.03426335674
-0.1076723612
-0.1085138054
1.140488566
27283.77482
27522.45813
27720.76131
27873.62227
27984.73903
28061.63437
28112.24117
28143.49665
28160.95242
28168.83228
28170.24834
28167.44289
28162.00382
28155.03861
28147.30773
28139.324
28131.42505
28123.82567
28116.6552
28109.9842
28103.8433
28098.23652
28093.15066
28088.5618
28084.43987
28080.75176
28077.46346
28074.54145
28071.95362
28069.66986
28067.66234
28065.90569
28064.37708
28063.05615
28061.92495
28060.96788
28060.17157
28059.52478
28059.01828
28058.64483
28058.39903
28058.27734
-0.07337202045
-0.07550566295
-0.075168081
-0.07975935491
-0.06304062087
-0.1319723091
-0.05813817479
1.597356518
27299.32864
27618.64049
27858.18326
28024.59161
28132.83693
28198.4664
28234.37857
28250.30688
28253.2336
28248.01433
28237.95322
28225.25894
28211.38186
28197.2544
28183.45867
28170.34192
28158.09548
28146.80834
28136.50355
28127.16265
28118.74218
28111.18464
28104.42574
28098.39916
28093.03956
28088.28444
28084.07524
28080.35789
28077.08304
28074.20607
28071.68694
28069.49001
28067.58375
28065.94052
28064.53626
28063.35024
28062.36487
28061.56546
28060.94002
28060.47916
28060.17595
28060.0258
-0.08865383803
-0.0914269234
-0.09442404132
-0.1036263446
-0.1051741817
-0.1379845723
-0.1244905581
1.493030323
27362.35181
27792.43321
28068.70718
28233.72111
28323.56402
28365.03176
28376.51388
28370.12967
28353.66892
28332.04413
28308.29555
28284.2609
28261.01261
28239.14027
28218.93208
28200.49077
28183.80766
28168.80965
28155.38894
28143.4216
28132.77908
28123.33506
28114.96945
28107.57051
28101.03576
28095.27223
28090.19623
28085.73291
28081.81569
28078.38555
28075.39049
28072.7848
28070.52858
28068.58712
28066.93052
28065.53317
28064.37345
28063.4334
28062.69842
28062.15711
28061.80106
28061.62472
-0.1053073588
-0.1086865216
-0.1149727715
-0.1242637972
-0.1421190462
-0.1427822331
-0.2511561586
0.8164191456
27594.38518
28117.62022
28390.53122
28518.06808
28562.70845
28561.61435
28536.53745
28500.04373
28459.27805
28418.20416
28378.92828
28342.47947
28309.26947
28279.36355
28252.63982
28228.88245
28207.83567
28189.23454
28172.8218
28158.35658
28145.61833
28134.40794
28124.54742
28115.87863
28108.26173
28101.57348
28095.70555
28090.56291
28086.06232
28082.13109
28078.70579
28075.73129
28073.1598
28070.95007
28069.06673
28067.47968
28066.1636
28065.09749
28064.2644
28063.65105
28063.2477
28063.04794
-0.1219225264
-0.1259464393
-0.134780833
-0.1448566859
-0.171610163
-0.1625840261
-0.3051565873
-0.002839785675
28233.35644
28690.78599
28857.94411
28885.43831
28847.66467
28782.22593
28708.00527
28634.24601
28565.20509
28502.57201
28446.7375
28397.4615
28354.22377
28316.40574
28283.38208
28254.56427
28229.41874
28207.47175
28188.30787
28171.56535
28156.93049
28144.1318
28132.93453
28123.13575
28114.55998
28107.0554
28100.49062
28094.75188
28089.74069
28085.37178
28081.57142
28078.27592
28075.43042
28072.98781
28070.90786
28069.15645
28067.70498
28066.52982
28065.61186
28064.93624
28064.49201
28064.272
-0.1371328773
-0.1421397336
-0.1523912974
-0.1656005031
-0.1903193542
-0.206786585
-0.3002484544
-0.6108980806
29464.84485
29552.66124
29465.39845
29318.26092
29160.37996
29011.66798
28879.03697
28763.74315
28664.73121
28580.14489
28507.99011
28446.40627
28393.759
28348.654
28309.91887
28276.57424
28247.80371
28222.92637
28201.37315
28182.66712
28166.40721
28152.255
28139.92398
28129.17075
28119.78796
28111.59848
28104.45064
28098.21434
28092.77783
28088.04502
28083.93331
28080.3717
28077.29932
28074.66407
28072.42163
28070.53449
28068.97129
28067.70616
28066.71823
28065.99128
28065.51336
28065.27666
-0.1497662396
-0.1559939278
-0.1669339407
-0.1851879754
-0.205059413
-0.2644484512
-0.2718546206
-0.970657257
31137.74335
30589.826
30133.05105
29761.97369
29463.99168
29225.05768
29032.74337
28876.9628
28749.83279
28645.28602
28558.67112
28486.41382
28425.75142
28374.53204
28331.065
28294.01014
28262.29568
28235.05718
28211.59169
28191.32331
28173.77685
28158.55774
28145.33641
28133.83614
28123.82353
28115.10086
28107.5001
28100.87804
28095.11232
28090.09825
28085.74619
28081.9794
28078.73224
28075.94872
28073.58128
28071.58981
28069.94076
28068.60653
28067.56488
28066.79851
28066.29474
28066.04524
-0.1587912571
-0.1660886858
-0.1770934745
-0.1995349973
-0.2110442474
-0.30001814
-0.1832763984
-1.110476511
32749.26934
31538.69218
30715.03527
30132.59861
29708.54759
29391.81626
29149.90533
28961.52316
28812.34444
28692.49034
28594.99097
28514.82393
28448.29912
28392.6566
28345.79828
28306.10529
28272.31165
28243.41512
28218.61346
28197.25803
28178.81971
28162.86336
28149.02851
28137.0147
28126.57002
28117.48224
28109.57184
28102.68641
28096.69621
28091.49055
28086.97493
28083.0686
28079.70267
28076.81845
28074.36617
28072.3039
28070.59662
28069.21554
28068.13747
28067.3444
28066.82311
28066.56493
-0.1634632314
-0.1713392966
-0.1820385433
-0.2062036857
-0.2095533623
-0.3068739205
-0.0756012595
-1.071611106
33731.63523
32106.18979
31055.48026
30344.6789
29845.69107
29483.69862
29213.50396
29006.85819
28845.51732
28717.33063
28613.97233
28529.58769
28459.96178
28401.99521
28353.36511
28312.30049
28277.43026
28247.67823
28222.1892
28200.27603
28181.38114
28165.04809
28150.90031
28138.62493
28127.96045
28118.68716
28110.61958
28103.60057
28097.49658
28092.19389
28087.59546
28083.61854
28080.19253
28077.2574
28074.76225
28072.6642
28070.92751
28069.52276
28068.4263
28067.61974
28067.0896
28066.82704
-0.163463223
-0.171339287
-0.182038535
-0.2062036828
-0.2095533802
-0.3068739689
-0.07560138991
-1.071611306
33731.63511
32106.18973
31055.48022
30344.67887
29845.69104
29483.69859
29213.50392
29006.85815
28845.51729
28717.33061
28613.97231
28529.58768
28459.96178
28401.99523
28353.36513
28312.30052
28277.4303
28247.67828
28222.18926
28200.2761
28181.38122
28165.04818
28150.9004
28138.62503
28127.96056
28118.68727
28110.6197
28103.60069
28097.49671
28092.19402
28087.5956
28083.61868
28080.19268
28077.25755
28074.7624
28072.66436
28070.92767
28069.52292
28068.42646
28067.6199
28067.08977
28066.8272
-0.1587912322
-0.1660886555
-0.177093444
-0.1995349755
-0.2110442812
-0.3000182548
-0.1832768075
-1.110477367
32749.26891
31538.69202
30715.03518
30132.59853
29708.5475
29391.81616
29149.90522
28961.52306
28812.34435
28692.49026
28594.99092
28514.8239
28448.29912
28392.65664
28345.79834
28306.10539
28272.31178
28243.41528
28218.61364
28197.25824
28178.81995
28162.86362
28149.0288
28137.01501
28126.57034
28117.48258
28109.5722
28102.68679
28096.6966
28091.49095
28086.97534
28083.06903
28079.70311
28076.8189
28074.36663
28072.30437
28070.5971
28069.21602
28068.13795
28067.34489
28066.8236
28066.56542
-0.1497662005
-0.1559938747
-0.1669338739
-0.1851879023
-0.2050593886
-0.2644485294
-0.2718552668
-0.9706590899
31137.74269
30589.82579
30133.05094
29761.97358
29463.99153
29225.0575
29032.74318
28876.96261
28749.83262
28645.28589
28558.67103
28486.41377
28425.75143
28374.5321
28331.06511
28294.0103
28262.2959
28235.05744
28211.592
28191.32366
28173.77724
28158.55817
28145.33688
28133.83665
28123.82407
28115.10143
28107.5007
28100.87867
28095.11297
28090.09893
28085.74689
28081.98012
28078.73297
28075.94947
28073.58205
28071.59059
28069.94155
28068.60733
28067.56569
28066.79933
28066.29556
28066.04606
-0.1371328296
-0.1421396597
-0.152391184
-0.1656003397
-0.1903191359
-0.2067863675
-0.3002486472
-0.610898919
29464.84436
29552.6612
29465.39842
29318.2608
29160.37975
29011.66771
28879.03667
28763.74287
28664.73095
28580.14469
28507.98997
28446.4062
28393.759
28348.65408
28309.91902
28276.57447
28247.80401
28222.92673
28201.37358
28182.66761
28166.40776
28152.25561
28139.92464
28129.17146
28119.78872
28111.59928
28104.45148
28098.21522
28092.77875
28088.04597
28083.93429
28080.37271
28077.30035
28074.66513
28072.42271
28070.53559
28068.97241
28067.70728
28066.71937
28065.99242
28065.51451
28065.27781
-0.1219224797
-0.1259463574
-0.1347806892
-0.1448564329
-0.1716096971
-0.1625832115
-0.3051551848
-0.002833543332
28233.35708
28690.78646
28857.94426
28885.43819
28847.66437
28782.22553
28708.00484
28634.2456
28565.20474
28502.57173
28446.73731
28397.4614
28354.22378
28316.40585
28283.38228
28254.56457
28229.41913
28207.47223
28188.30843
28171.56599
28156.93121
28144.13259
28132.93539
28123.13667
28114.56096
28107.05643
28100.49171
28094.75302
28089.74187
28085.373
28081.57268
28078.27722
28075.43176
28072.98917
28070.90925
28069.15786
28067.70642
28066.53127
28065.61332
28064.93771
28064.49349
28064.27348
-0.1053073238
-0.1086864567
-0.1149726493
-0.1242635403
-0.1421185276
-0.1427810038
-0.2511539463
0.8164338168
27594.3879
28117.62136
28390.53151
28518.06787
28562.70798
28561.61375
28536.53683
28500.04316
28459.27757
28418.20378
28378.92802
28342.47934
28309.26947
28279.36368
28252.64007
28228.88282
28207.83615
28189.23513
28172.82249
28158.35737
28145.61921
28134.40891
28124.54847
28115.87975
28108.26293
28101.57475
28095.70689
28090.5643
28086.06377
28082.13259
28078.70734
28075.73288
28073.16143
28070.95174
28069.06843
28067.48141
28066.16535
28065.09927
28064.26619
28063.65285
28063.24951
28063.04975
-0.08865382055
-0.09142690285
-0.09442400735
-0.1036262336
-0.1051739166
-0.1379836253
-0.1244898732
1.493044298
27362.35482
27792.43431
28068.70725
28233.7206
28323.56323
28365.03088
28376.51301
28370.1289
28353.66828
28332.04364
28308.29523
28284.26074
28261.01261
28239.14043
28218.93238
28200.49122
28183.80824
28168.81036
28155.38977
28143.42254
28132.78012
28123.33621
28114.9707
28107.57185
28101.03719
28095.27373
28090.19781
28085.73456
28081.8174
28078.38733
28075.39232
28072.78669
28070.53051
28068.5891
28066.93254
28065.53522
28064.37553
28063.4355
28062.70054
28062.15925
28061.8032
28061.62687
-0.07337201595
-0.07550569563
-0.07516817405
-0.07975952783
-0.0630409556
-0.1319723042
-0.05813832607
1.597362046
27299.32993
27618.64072
27858.18264
28024.5905
28132.83562
28198.4651
28234.37738
28250.30587
28253.23279
28248.01373
28237.95283
28225.25875
28211.38186
28197.25459
28183.45903
28170.34245
28158.09616
28146.80917
28136.50451
28127.16375
28118.74341
28111.18598
28104.42719
28098.40071
28093.04121
28088.28619
28084.07708
28080.35981
28077.08503
28074.20813
28071.68907
28069.49219
28067.58599
28065.94281
28064.53859
28063.35261
28062.36728
28061.56789
28060.94248
28060.48164
28060.17843
28060.02828
-0.0606324994
-0.06313739059
-0.06085819527
-0.05623506146
-0.03426406
-0.1076731372
-0.1085136372
1.140492543
27283.77529
27522.45728
27720.75964
27873.62027
27984.73703
28061.63254
28112.2396
28143.49537
28160.95143
28168.83156
28170.24788
28167.44268
28162.00384
28155.03883
28147.30815
28139.32461
28131.42584
28123.82663
28116.65632
28109.98546
28103.8447
28098.23805
28093.15232
28088.56357
28084.44175
28080.75375
28077.46555
28074.54363
28071.95589
28069.67221
28067.66476
28065.90818
28064.37963
28063.05876
28061.92761
28060.97058
28060.17431
28059.52755
28059.02108
28058.64764
28058.40186
28058.28017
-0.05127512395
-0.05722733357
-0.05588280645
-0.04153331857
-0.02430399291
-0.07719229798
-0.1907189888
0.4545228414
27279.15441
27464.83923
27628.74113
27764.3749
27870.85778
27951.09363
28009.46031
28050.49157
28078.25193
28096.11801
28106.76822
28112.26317
28114.15429
28113.59061
28111.41168
28108.22331
28104.45715
28100.41627
28096.30969
28092.27808
28088.41284
28084.7702
28081.38144
28078.26052
28075.4095
28072.82256
28070.48881
28068.39436
28066.5238
28064.86118
28063.39072
28062.09731
28060.96679
28059.98616
28059.14371
28058.42903
28057.83307
28057.34815
28056.96789
28056.68725
28056.50244
28056.41098
-0.04573162599
-0.06170763796
-0.0717817767
-0.06461639432
-0.03396541478
-0.05582874702
-0.2135393595
-0.0726423063
27277.35428
27427.57309
27564.96481
27684.26163
27783.21837
27862.42335
27924.01907
27970.76245
28005.45058
28030.62386
28048.44685
28060.69005
28068.76166
28073.75943
28076.52616
28077.70116
28077.76438
28077.07273
28075.88915
28074.40534
28072.75943
28071.04946
28069.34374
28067.68858
28066.11423
28064.63924
28063.27383
28062.0223
28060.88489
28059.85912
28058.94079
28058.12472
28057.40524
28056.77661
28056.23325
28055.76996
28055.38204
28055.06533
28054.81635
28054.63226
28054.51094
28054.45096
-0.0424365094
-0.07825968775
-0.1127807156
-0.122862749
-0.07203392668
-0.0472137002
-0.1413646584
-0.2595803439
27276.91396
27402.09021
27519.26669
27624.47446
27715.32314
27791.35949
27853.43026
27903.0902
27942.16637
27972.48239
27995.70757
28013.29059
28026.44473
28036.16092
28043.23384
28048.29211
28051.82769
28054.22227
28055.76994
28056.69578
28057.1711
28057.32552
28057.25651
28057.03689
28056.72064
28056.34742
28055.94607
28055.53724
28055.13547
28054.75076
28054.38977
28054.05671
28053.75403
28053.48298
28053.24394
28053.03677
28052.86101
28052.71603
28052.60116
28052.51577
28052.45937
28052.43157
-0.03838272961
-0.09976290782
-0.1584855279
-0.1678129515
-0.09820719647
-0.02765492197
-0.01946636508
-0.1778954112
27277.53155
27383.90413
27485.5263
27579.03684
27662.23394
27734.25792
27795.25122
27846.00207
27887.64347
27921.43332
27948.61209
27970.32167
27987.56731
28001.20711
28011.95752
28020.40702
28027.03316
28032.21987
28036.27363
28039.43779
28041.90473
28043.82606
28045.32095
28046.48288
28047.38509
28048.08483
28048.62689
28049.04622
28049.37011
28049.61984
28049.81199
28049.95949
28050.0724
28050.15854
28050.22398
28050.27341
28050.31046
28050.33787
28050.35773
28050.37156
28050.38044
28050.38503
-0.03212511957
-0.1062148414
-0.1628705664
-0.1489991112
-0.07326636846
0.00515079361
0.06399539528
-0.03238066387
27276.51765
27370.02273
27459.889
27543.90612
27620.31304
27688.18407
27747.31319
27798.0231
27840.97258
27876.99627
27906.98698
27931.81795
27952.29701
27969.14397
27982.98331
27994.34646
28003.6792
28011.3515
28017.668
28022.87808
28027.18502
28030.75409
28033.7194
28036.18968
28038.25307
28039.98102
28041.43155
28042.65178
28043.68006
28044.54765
28045.28003
28045.89805
28046.41874
28046.85602
28047.22125
28047.52368
28047.77077
28047.96851
28048.12159
28048.23357
28048.30705
28048.3437
-0.02440293982
-0.07542729725
-0.1043393255
-0.08042570844
-0.02506723541
0.03090843447
0.07231071836
0.04901369163
27276.2629
27359.49616
27440.09702
27516.38158
27586.92463
27650.84974
27707.79299
27757.80403
27801.2276
27838.59273
27870.52242
27897.6671
27920.65988
27940.08952
27956.48638
27970.31739
27981.98674
27991.84
28000.16986
28007.22254
28013.20422
28018.28693
28022.61394
28026.30445
28029.45756
28032.15573
28034.46761
28036.45041
28038.15186
28039.61182
28040.86362
28041.93514
28042.8497
28043.62676
28044.28255
28044.83051
28045.28169
28045.64507
28045.92779
28046.13536
28046.27177
28046.33965
-0.01359350072
-0.01144138123
-0.02293186101
-0.02420356981
-0.004430075219
0.03402196863
0.04614370195
0.04615031756
27276.20699
27351.38987
27424.61939
27494.59596
27560.15179
27620.49544
27675.20383
27724.17186
27767.54097
27805.62493
27838.84346
27867.6689
27892.58675
27914.06879
27932.55628
27948.45096
27962.11139
27973.85292
27983.9499
27992.63904
28000.12342
28006.57651
28012.14606
28016.95768
28021.11807
28024.71784
28027.83388
28030.53153
28032.86629
28034.88531
28036.62866
28038.13039
28039.41936
28040.52
28041.45292
28042.23536
28042.88166
28043.40354
28043.81041
28044.10955
28044.30629
28044.40411
-0.001993851807
0.04610967969
0.02948296122
-0.005688244038
-0.013434122
0.01892461738
0.02815193638
0.02824307025
27276.17022
27345.04327
27412.39367
27477.22936
27538.5895
27595.77504
27648.35412
27696.13807
27739.13935
27777.52273
27811.558
27841.57887
27867.95017
27891.04342
27911.21987
27928.81971
27944.15588
27957.51137
27969.13875
27979.2613
27988.07494
27995.75067
28002.43714
28008.26319
28013.3403
28017.76476
28021.61966
28024.97669
28027.89761
28030.43563
28032.63652
28034.53959
28036.17855
28037.58219
28038.77498
28039.7776
28040.60729
28041.27828
28041.80203
28042.18742
28042.441
28042.56704
-0.002171290039
0.0705640203
0.04805920516
0.001768260231
-0.01775133133
0.01137799998
0.02774837656
0.02730753844
27276.15939
27340.03296
27402.68213
27463.33715
27521.20069
27575.66013
27626.29882
27672.88655
27715.3555
27753.76877
27788.28727
27819.13892
27846.59227
27870.93556
27892.46087
27911.45297
27928.18196
27942.89884
27955.83339
27967.19345
27977.16537
27985.91512
27993.58968
28000.31872
28006.21627
28011.38232
28015.90443
28019.85908
28023.31299
28026.32425
28028.94337
28031.2141
28033.17428
28034.85645
28036.28847
28037.49399
28038.49287
28039.30154
28039.93325
28040.39837
28040.7045
28040.85664
-0.01372233449
0.07366639471
0.06497593108
0.03162316943
0.006133683119
0.02713045797
0.04780849819
0.04982710997
27276.17374
27336.07297
27394.96457
27452.23565
27507.21519
27559.36528
27608.29398
27653.7535
27695.62722
27733.90967
27768.68368
27800.09768
27828.34499
27853.64634
27876.23581
27896.35015
27914.22097
27930.06955
27944.10345
27956.51468
27967.47896
27977.15576
27985.68877
27993.2068
27999.82479
28005.64494
28010.75778
28015.24335
28019.17216
28022.6062
28025.59979
28028.20037
28030.44922
28032.38208
28034.02969
28035.41827
28036.56993
28037.503
28038.23234
28038.76958
28039.12327
28039.29903
-0.02048479998
0.08805532112
0.1092818517
0.09216317383
0.06464987671
0.06869545467
0.08596346748
0.09223884943
27276.2083
27332.96096
27388.86755
27443.42517
27496.05862
27546.29137
27593.75794
27638.20605
27679.49018
27717.55911
27752.44037
27784.22353
27813.04417
27839.0696
27862.48658
27883.49158
27902.28304
27919.0558
27933.99707
27947.28378
27959.08101
27969.54118
27978.80386
27986.99596
27994.23225
28000.61594
28006.23952
28011.1855
28015.52726
28019.32977
28022.6504
28025.53956
28028.04137
28030.19419
28032.03118
28033.58072
28034.86682
28035.90944
28036.72481
28037.32562
28037.72123
28037.91782
0.0006789145808
0.1380131935
0.1836652763
0.1650766478
0.1342316084
0.1268124553
0.1333122808
0.1416135433
27276.25292
27330.54957
27384.11968
27436.5385
27487.30238
27535.98331
27582.24011
27625.82247
27666.56831
27704.39636
27739.29543
27771.31225
27800.53906
27827.10186
27851.15
27872.84726
27892.36458
27909.87438
27925.54613
27939.54329
27952.02107
27963.12507
27972.99053
27981.742
27989.49336
27996.34815
28002.39997
28007.73302
28012.42275
28016.53639
28020.13366
28023.26731
28025.98371
28028.32336
28030.32136
28032.00787
28033.40844
28034.54441
28035.43309
28036.08811
28036.51949
28036.73385
0.0639143264
0.2157263677
0.2649747381
0.2369590185
0.1960243731
0.1827930687
0.1793003053
0.1867748579
27276.29711
27328.7307
27380.52333
27431.30655
27480.62887
27528.09917
27573.3966
27616.27533
27656.56428
27694.16273
27729.03298
27761.19135
27790.6984
27817.64933
27842.16492
27864.38356
27884.45442
27902.5318
27918.77065
27933.32308
27946.33584
27957.94848
27968.29221
27977.48916
27985.6521
27992.88442
27999.28028
28004.92501
28009.89546
28014.26055
28018.08172
28021.41351
28024.30402
28026.79539
28028.92427
28030.72218
28032.21593
28033.4279
28034.37632
28035.07551
28035.53603
28035.76488
0.1523605405
0.2830302112
0.3227011107
0.2912597648
0.247866806
0.2259054957
0.2158846922
0.2227102395
27276.33203
27327.42606
27377.93667
27427.53534
27475.80723
27522.38778
27566.9717
27609.31796
27649.25084
27686.65747
27721.48268
27753.72211
27783.41433
27810.63267
27835.47739
27858.06831
27878.53846
27897.02855
27913.68242
27928.64343
27942.05165
27954.04178
27964.74167
27974.27136
27982.74253
27990.25821
27996.91285
28002.7924
28007.9747
28012.52978
28016.52035
28020.0022
28023.02469
28025.63116
28027.85938
28029.74191
28031.30646
28032.57621
28033.57005
28034.30284