/*--------------------------------*- C++ -*----------------------------------*\
  =========                 |
  \\      /  F ield         | OpenFOAM: The Open Source CFD Toolbox
   \\    /   O peration     | Website:  https://openfoam.org
    \\  /    A nd           | Version:  6
     \\/     M anipulation  |
\*---------------------------------------------------------------------------*/
FoamFile
{
    version     2.0;
    format      ascii;
    class       surfaceScalarField;
    location    "0.06";
    object      phi;
}
// * * * * * * * * * * * * * * * * * * * * * * * * * * * * * * * * * * * * * //

dimensions      [0 3 -1 0 0 0 0];

internalField   nonuniform List<scalar> 
4900
(
-6.689147474e-08
-4.538801104e-08
-3.834511315e-08
-2.854636157e-08
-1.965261679e-08
-1.869249636e-08
-8.448436542e-09
-1.120418028e-08
-2.326127757e-09
-6.122308783e-09
6.172449934e-10
-2.943372717e-09
2.883056305e-10
3.289393589e-10
8.92298388e-17
2.88305465e-10
-4.968136045e-21
2.012002808e-24
-4.926912255e-21
-4.122378916e-23
-4.844726519e-21
-8.218858495e-23
-4.724565724e-21
-1.201671983e-22
-4.570518305e-21
-1.540571638e-22
-4.387507661e-21
-1.830236422e-22
-4.180977007e-21
-2.065468665e-22
-3.956572361e-21
-2.244240421e-22
-3.719855244e-21
-2.36739661e-22
-3.476065699e-21
-2.438151978e-22
-3.229945929e-21
-2.461484872e-22
-2.985626046e-21
-2.443516157e-22
-2.746566844e-21
-2.390938966e-22
-2.515550426e-21
-2.310540141e-22
-2.294707694e-21
-2.208831667e-22
-2.0855716e-21
-2.091792995e-22
-1.889146154e-21
-1.964713506e-22
-1.705982872e-21
-1.832118095e-22
-1.536258275e-21
-1.697756674e-22
-1.379847896e-21
-1.564639105e-22
-1.236393861e-21
-1.435099409e-22
-1.105364436e-21
-1.310876163e-22
-9.861049028e-22
-1.193199178e-22
-8.778798416e-22
-1.082875451e-22
-7.79907348e-22
-9.803698012e-23
-6.91385985e-22
-8.858775334e-23
-6.115153912e-22
-7.993878745e-23
-5.395114917e-22
-7.207379406e-23
-4.746172208e-22
-6.496576255e-23
-4.161095845e-22
-5.858062001e-23
-3.633037938e-22
-5.288015995e-23
-3.15555097e-22
-4.782434436e-23
-2.722588335e-22
-4.337308095e-23
-2.328491415e-22
-3.948757045e-23
-1.967966622e-22
-3.613130902e-23
-1.636055121e-22
-3.327082095e-23
-1.328097243e-22
-3.087618935e-23
-1.03969292e-22
-2.892145376e-23
-7.666584769e-23
-2.738497458e-23
-5.049777124e-23
-2.625000463e-23
-2.507370203e-23
-2.550628426e-23
-2.515609239e-23
-7.301801461e-08
-8.746310736e-08
-3.55681626e-08
-6.599621362e-08
-1.249014907e-08
-4.177050989e-08
-2.019154464e-09
-2.167517489e-08
4.191250854e-10
-8.560588355e-09
1.48655671e-09
-4.010804337e-09
4.168580614e-10
1.398638107e-09
1.561928755e-17
7.051638033e-10
-5.010839528e-21
4.310813936e-24
-4.96787055e-21
-8.419845082e-23
-4.882699619e-21
-1.67371431e-22
-4.758451512e-21
-2.444333611e-22
-4.599482179e-21
-3.13050399e-22
-4.411029865e-21
-3.715056045e-22
-4.198854597e-21
-4.18757465e-22
-3.968889578e-21
-4.544300125e-22
-3.72693326e-21
-4.787424796e-22
-3.478402039e-21
-4.923983881e-22
-3.228152395e-21
-4.964554805e-22
-2.980371712e-21
-4.921949293e-22
-2.738530209e-21
-4.810032054e-22
-2.50538256e-21
-4.642745295e-22
-2.283006464e-21
-4.433370688e-22
-2.072865907e-21
-4.19402472e-22
-1.875888482e-21
-3.935360646e-22
-1.692548229e-21
-3.666438814e-22
-1.52294768e-21
-3.394724172e-22
-1.366894791e-21
-3.126172279e-22
-1.223972147e-21
-2.865370808e-22
-1.093597137e-21
-2.615710249e-22
-9.750727589e-22
-2.379564283e-22
-8.67629371e-22
-2.158466261e-22
-7.704581127e-22
-1.953273154e-22
-6.827369348e-22
-1.764312119e-22
-6.036502601e-22
-1.591507632e-22
-5.324032874e-22
-1.434489023e-22
-4.68231885e-22
-1.292679467e-22
-4.104089222e-22
-1.165368205e-22
-3.582477759e-22
-1.051768075e-22
-3.111036379e-22
-9.51060536e-23
-2.683731391e-22
-8.624302591e-23
-2.294927114e-22
-7.850912278e-23
-1.939360235e-22
-7.183060328e-23
-1.612107499e-22
-6.613998484e-23
-1.3085488e-22
-6.137703555e-23
-1.024327287e-22
-5.74894691e-23
-7.553082637e-23
-5.443343138e-23
-4.975406226e-23
-5.217381815e-23
-2.472349994e-23
-5.068420157e-23
-4.994464022e-23
-8.613071688e-08
-1.129224664e-07
-4.646356618e-08
-1.056633643e-07
-1.256307848e-08
-7.567099759e-08
4.970140709e-09
-3.920839408e-08
5.454221545e-09
-9.044669186e-09
2.869993947e-09
-1.426576761e-09
4.16267967e-10
3.852363998e-09
-1.85669622e-18
1.121431748e-09
-5.097263705e-21
6.461947888e-24
-5.051030711e-21
-1.304361019e-22
-4.959749894e-21
-2.586621744e-22
-4.827059973e-21
-3.771385138e-22
-4.657932181e-21
-4.821985026e-22
-4.458279846e-21
-5.711832572e-22
-4.234528239e-21
-6.425393454e-22
-3.993205559e-21
-6.957878683e-22
-3.740594452e-21
-7.313936035e-22
-3.482465531e-21
-7.505720983e-22
-3.22389877e-21
-7.550717266e-22
-2.969186954e-21
-7.469608417e-22
-2.721808169e-21
-7.284406044e-22
-2.484451155e-21
-7.016945788e-22
-2.259077192e-21
-6.687783803e-22
-2.047004028e-21
-6.31547186e-22
-1.84900003e-21
-5.916156969e-22
-1.665379743e-21
-5.503437638e-22
-1.496094785e-21
-5.088407999e-22
-1.34081634e-21
-4.679827952e-22
-1.199007279e-21
-4.28436822e-22
-1.069983308e-21
-3.906890906e-22
-9.529633864e-22
-3.550737129e-22
-8.471102251e-22
-3.218002679e-22
-7.515619728e-22
-2.90979012e-22
-6.654563021e-22
-2.626431338e-22
-5.87948112e-22
-2.367678522e-22
-5.182219776e-22
-2.132864216e-22
-4.555003664e-22
-1.921032649e-22
-3.990485011e-22
-1.731045491e-22
-3.481766153e-22
-1.561665458e-22
-3.022402181e-22
-1.411621237e-22
-2.60638868e-22
-1.279656995e-22
-2.228138552e-22
-1.164569389e-22
-1.882451045e-22
-1.065234654e-22
-1.564475397e-22
-9.806279691e-23
-1.269670946e-22
-9.098369103e-23
-9.937651576e-23
-8.520704845e-23
-7.327108116e-23
-8.06664832e-23
-4.826434591e-23
-7.730861335e-23
-2.39838428e-23
-7.509303024e-23
-7.399185403e-23
-8.721692242e-08
-1.180699339e-07
-6.046959046e-08
-1.324106963e-07
-2.539205707e-08
-1.10748531e-07
2.165943061e-09
-6.676639422e-08
9.520912248e-09
-1.639963833e-08
4.720696389e-09
3.373639158e-09
3.498266119e-10
8.223233787e-09
-1.97392558e-17
1.471258361e-09
-5.230801936e-21
7.888816685e-24
-5.179236641e-21
-1.820059811e-22
-5.078207921e-21
-3.597006425e-22
-4.932106677e-21
-5.232547235e-22
-4.746909173e-21
-6.674159791e-22
-4.529633538e-21
-7.884837982e-22
-4.287779079e-21
-8.844235962e-22
-4.028817362e-21
-9.547842116e-22
-3.759781677e-21
-1.000468689e-21
-3.48697549e-21
-1.023422392e-21
-3.21579888e-21
-1.026297073e-21
-2.950677624e-21
-1.012135381e-21
-2.695072413e-21
-9.841035548e-22
-2.451544225e-21
-9.45284865e-22
-2.221854065e-21
-8.985348922e-22
-2.007079334e-21
-8.463924134e-22
-1.807733641e-21
-7.910359134e-22
-1.623881156e-21
-7.342746776e-22
-1.455240114e-21
-6.775640488e-22
-1.301272797e-21
-6.220359653e-22
-1.161261218e-21
-5.685377631e-22
-1.034368978e-21
-5.176740601e-22
-9.196904931e-22
-4.698481514e-22
-8.162891357e-22
-4.253006534e-22
-7.232259712e-22
-3.84144128e-22
-6.395806876e-22
-3.463931377e-22
-5.644662042e-22
-3.119896677e-22
-4.970382525e-22
-2.808241577e-22
-4.365010326e-22
-2.5275256e-22
-3.821098627e-22
-2.276099218e-22
-3.331715659e-22
-2.052210078e-22
-2.890431928e-22
-1.854084584e-22
-2.491295459e-22
-1.679989368e-22
-2.128798698e-22
-1.528276658e-22
-1.797839802e-22
-1.397416968e-22
-1.493680387e-22
-1.286022014e-22
-1.211901204e-22
-1.192860228e-22
-9.483568381e-23
-1.116866781e-22
-6.99130094e-23
-1.057149586e-22
-4.604862353e-23
-1.012992358e-22
-2.288259641e-23
-9.838555545e-23
-9.693767269e-23
-7.491081291e-08
-1.083820626e-07
-6.522197728e-08
-1.420995319e-07
-3.866579101e-08
-1.373047173e-07
-9.206285252e-09
-9.62259e-08
7.817478001e-09
-3.342340158e-08
5.325199791e-09
5.865917404e-09
1.831253326e-10
1.336530827e-08
-2.123003379e-17
1.654383673e-09
-5.416141761e-21
8.398508343e-24
-5.356901917e-21
-2.412504074e-22
-5.241735771e-21
-4.748765237e-22
-5.076249444e-21
-6.887559968e-22
-4.867966823e-21
-8.757185466e-22
-4.625571075e-21
-1.030904421e-21
-4.358144198e-21
-1.15188023e-21
-4.07451155e-21
-1.238451445e-21
-3.782748622e-21
-1.292270971e-21
-3.489865366e-21
-1.316349703e-21
-3.201653002e-21
-1.314558117e-21
-2.9226612e-21
-1.291180404e-21
-2.656267989e-21
-1.250554439e-21
-2.404806936e-21
-1.196807944e-21
-2.169722471e-21
-1.133685633e-21
-1.951731875e-21
-1.064453425e-21
-1.750979678e-21
-9.918625481e-22
-1.567176185e-21
-9.181565099e-22
-1.399716266e-21
-8.451060798e-22
-1.247777617e-21
-7.740603682e-22
-1.110399531e-21
-7.060051083e-22
-9.865442729e-22
-6.416219413e-22
-8.751435584e-22
-5.813447085e-22
-7.751326838e-22
-5.254104419e-22
-6.854746916e-22
-4.739039539e-22
-6.051766706e-22
-4.267957579e-22
-5.332999748e-22
-3.839735714e-22
-4.689658308e-22
-3.452679588e-22
-4.113575191e-22
-3.104728168e-22
-3.597200627e-22
-2.793614482e-22
-3.133581505e-22
-2.516989501e-22
-2.71632848e-22
-2.272515851e-22
-2.339575107e-22
-2.057937249e-22
-1.997932071e-22
-1.871128785e-22
-1.686438695e-22
-1.710132326e-22
-1.400513281e-22
-1.573180603e-22
-1.135903299e-22
-1.458712872e-22
-8.886360646e-23
-1.365384455e-22
-6.549701696e-23
-1.292071981e-22
-4.31347621e-23
-1.237875742e-22
-2.143462376e-23
-1.202120378e-22
-1.184355143e-22
-6.096449463e-08
-9.068371976e-08
-6.436673918e-08
-1.386972873e-07
-4.833421032e-08
-1.533372461e-07
-2.269672719e-08
-1.218633831e-07
-2.607280391e-10
-5.585940074e-08
3.267685435e-09
2.337503945e-09
-2.19176072e-10
1.685216979e-08
-1.504330514e-18
1.435207579e-09
-5.660473441e-21
6.938239713e-24
-5.59048422e-21
-3.112442113e-22
-5.455579432e-21
-6.097910496e-22
-5.263187715e-21
-8.811626635e-22
-5.023140534e-21
-1.115785677e-21
-4.746545901e-21
-1.307523934e-21
-4.444723659e-21
-1.453732233e-21
-4.128346108e-21
-1.554863587e-21
-3.806846681e-21
-1.613809759e-21
-3.488095177e-21
-1.635145269e-21
-3.178296957e-21
-1.624405025e-21
-2.882055855e-21
-1.587474737e-21
-2.602540203e-21
-1.530127772e-21
-2.341700943e-21
-1.457709241e-21
-2.10050401e-21
-1.374948851e-21
-1.879152209e-21
-1.285875652e-21
-1.677282489e-21
-1.193806716e-21
-1.494132497e-21
-1.101384852e-21
-1.328675481e-21
-1.010645219e-21
-1.179725765e-21
-9.230958498e-22
-1.046018533e-21
-8.398016102e-22
-9.262682257e-22
-7.61464883e-22
-8.192097166e-22
-6.884990714e-22
-7.236260494e-22
-6.210930341e-22
-6.383659353e-22
-5.592659129e-22
-5.62353638e-22
-5.029126656e-22
-4.945933328e-22
-4.518410955e-22
-4.341695564e-22
-4.058014033e-22
-3.80244977e-22
-3.645093523e-22
-3.320563969e-22
-3.276641089e-22
-2.889096583e-22
-2.949617294e-22
-2.501739262e-22
-2.661051515e-22
-2.15275686e-22
-2.408114257e-22
-1.836926782e-22
-2.18816805e-22
-1.549479174e-22
-1.998802008e-22
-1.286038831e-22
-1.837854207e-22
-1.04256927e-22
-1.703425174e-22
-8.153190949e-23
-1.593885139e-22
-6.007705563e-23
-1.507877079e-22
-3.955900048e-23
-1.44431718e-22
-1.965798783e-23
-1.402393989e-22
-1.381567293e-22
-5.25516075e-08
-6.966492518e-08
-6.506284122e-08
-1.261860536e-07
-5.841343481e-08
-1.599866525e-07
-3.635178396e-08
-1.43925034e-07
-1.154583469e-08
-8.066535e-08
-4.586092896e-10
-8.749721461e-09
-7.362878657e-10
1.712984838e-08
1.48467935e-17
6.989197253e-10
-5.973773718e-21
2.735582341e-24
-5.888968867e-21
-3.96053647e-22
-5.726903231e-21
-7.718664277e-22
-5.497780072e-21
-1.110300777e-21
-5.214865564e-21
-1.398720141e-21
-4.892756446e-21
-1.62965794e-21
-4.545869443e-21
-1.800649007e-21
-4.187315117e-21
-1.913452515e-21
-3.828209832e-21
-1.972954416e-21
-3.477384329e-21
-1.986014847e-21
-3.141395508e-21
-1.960442548e-21
-2.824735593e-21
-1.904187898e-21
-2.530145303e-21
-1.82477576e-21
-2.258960684e-21
-1.728955912e-21
-2.011447386e-21
-1.622528453e-21
-1.787096481e-21
-1.510297e-21
-1.584870796e-21
-1.396106869e-21
-1.403400402e-21
-1.282933615e-21
-1.241131435e-21
-1.172996329e-21
-1.096435037e-21
-1.067878034e-21
-9.676838731e-22
-9.686420654e-22
-8.533033593e-22
-8.759380529e-22
-7.518037762e-22
-7.900945306e-22
-6.617984044e-22
-7.111973536e-22
-5.820117284e-22
-6.391544567e-22
-5.112808204e-22
-5.737482071e-22
-4.485522208e-22
-5.146769373e-22
-3.928760027e-22
-4.615873131e-22
-3.433982151e-22
-4.140991194e-22
-2.993525333e-22
-3.71823895e-22
-2.600516667e-22
-3.343786603e-22
-2.248788827e-22
-3.013957934e-22
-1.932798607e-22
-2.725299317e-22
-1.647549939e-22
-2.474626137e-22
-1.388521881e-22
-2.259052369e-22
-1.151601655e-22
-2.07600792e-22
-9.330224541e-23
-1.923247337e-22
-7.293056192e-23
-1.798852698e-22
-5.372066027e-23
-1.701232863e-22
-3.536641148e-23
-1.629120756e-22
-1.75751834e-23
-1.581569952e-22
-1.557951506e-22
-4.88915695e-08
-4.796962049e-08
-6.854868157e-08
-1.065289415e-07
-7.086848694e-08
-1.576668471e-07
-5.267253509e-08
-1.621209858e-07
-2.496498095e-08
-1.083729041e-07
-5.180261035e-09
-2.853444138e-08
-1.05085931e-09
1.300044664e-08
6.979551485e-18
-3.519395422e-10
-6.369708282e-21
-2.858551495e-24
-6.26469722e-21
-5.010692946e-22
-6.065274468e-21
-9.712989248e-22
-5.786162128e-21
-1.389428076e-21
-5.445791027e-21
-1.739111204e-21
-5.063756275e-21
-2.011717586e-21
-4.658697333e-21
-2.205737729e-21
-4.246851268e-21
-2.32533319e-21
-3.841309258e-21
-2.37853581e-21
-3.451851741e-21
-2.375516452e-21
-3.085178448e-21
-2.327164557e-21
-2.745357176e-21
-2.244062431e-21
-2.434354434e-21
-2.135836216e-21
-2.152557228e-21
-2.010815188e-21
-1.89923515e-21
-1.875916851e-21
-1.67292122e-21
-1.736681393e-21
-1.471708634e-21
-1.597393941e-21
-1.293471028e-21
-1.46124961e-21
-1.136018457e-21
-1.330531064e-21
-9.972023165e-22
-1.206779982e-21
-8.749815044e-22
-1.090952191e-21
-7.674602677e-22
-9.835519679e-22
-6.729061407e-22
-8.847445563e-22
-5.897544211e-22
-7.944480439e-22
-5.166039724e-22
-7.124067965e-22
-4.522077859e-22
-6.382490507e-22
-3.954606973e-22
-5.715312919e-22
-3.453858683e-22
-5.117718577e-22
-3.011210774e-22
-4.584759141e-22
-2.619054619e-22
-4.111536391e-22
-2.270670742e-22
-3.693331364e-22
-1.960114299e-22
-3.325693199e-22
-1.682111007e-22
-3.004497692e-22
-1.431963329e-22
-2.725983475e-22
-1.205466213e-22
-2.486772025e-22
-9.98831489e-23
-2.283876364e-22
-8.086198649e-23
-2.114702153e-22
-6.31679453e-23
-1.97704406e-22
-4.650897668e-23
-1.869079538e-22
-3.061101682e-23
-1.78936166e-22
-1.521318193e-23
-1.736812197e-22
-1.710715812e-22
-4.457977918e-08
-2.739376277e-08
-7.063457978e-08
-8.047414086e-08
-8.301694002e-08
-1.452844869e-07
-7.084857568e-08
-1.7428935e-07
-3.955413906e-08
-1.396673407e-07
-1.013547732e-08
-5.79531031e-08
-1.131450414e-09
3.996419724e-09
-9.22249473e-18
-1.483389932e-09
-6.868413821e-21
-8.68193598e-24
-6.734813166e-21
-6.346745364e-22
-6.483321978e-21
-1.222799861e-21
-6.13580212e-21
-1.736962896e-21
-5.718389829e-21
-2.156543463e-21
-5.257797164e-21
-2.472335153e-21
-4.778332881e-21
-2.6852318e-21
-4.300104669e-21
-2.803596022e-21
-3.838344284e-21
-2.84033559e-21
-3.403552704e-21
-2.810352132e-21
-3.002124411e-21
-2.728641579e-21
-2.637172576e-21
-2.609067539e-21
-2.309367972e-21
-2.463698549e-21
-2.017686576e-21
-2.30255867e-21
-1.760021107e-21
-2.133648659e-21
-1.533649738e-21
-1.963123242e-21
-1.335575713e-21
-1.795542472e-21
-1.16276019e-21
-1.634143541e-21
-1.012272154e-21
-1.481101284e-21
-8.813770485e-22
-1.337760915e-21
-7.675821098e-22
-1.204836463e-21
-6.686524489e-22
-1.082574329e-21
-5.826083525e-22
-9.708845733e-22
-5.077113174e-22
-8.69444072e-22
-4.424440114e-22
-7.777760164e-22
-3.854876211e-22
-6.95310121e-22
-3.356987911e-22
-6.214274113e-22
-2.920874776e-22
-5.554929103e-22
-2.537964449e-22
-4.968789741e-22
-2.200827354e-22
-4.449815008e-22
-1.903011971e-22
-3.992307869e-22
-1.638899999e-22
-3.590984228e-22
-1.403579909e-22
-3.2410131e-22
-1.192736955e-22
-2.938036323e-22
-1.002557588e-22
-2.678174165e-22
-8.296462587e-23
-2.458021643e-22
-6.709526648e-23
-2.274639166e-22
-5.237077014e-23
-2.125540196e-22
-3.853665013e-23
-2.008677947e-22
-2.535571309e-23
-1.922432552e-22
-1.26033652e-23
-1.865599786e-22
-1.837382057e-22
-3.398684641e-08
-1.001997277e-08
-6.461905387e-08
-4.984193338e-08
-8.846227967e-08
-1.21441261e-07
-8.6993738e-08
-1.757578917e-07
-5.663696251e-08
-1.700241161e-07
-1.75227656e-08
-9.706729996e-08
-5.942243022e-10
-1.293212156e-08
-8.571973426e-18
-2.077614243e-09
-7.499009781e-21
-1.359507674e-23
-7.32278367e-21
-8.109052359e-22
-6.997382009e-21
-1.548211271e-21
-6.555336653e-21
-2.17902322e-21
-6.034185914e-21
-2.677714174e-21
-5.470735517e-21
-3.035810459e-21
-4.89676153e-21
-3.259235583e-21
-4.336918643e-21
-3.363473538e-21
-3.808435722e-21
-3.368857916e-21
-3.321911404e-21
-3.29692056e-21
-2.882610667e-21
-3.167991057e-21
-2.491853673e-21
-2.999877821e-21
-2.148268076e-21
-2.807341889e-21
-1.848807325e-21
-2.602081523e-21
-1.589518482e-21
-2.393003856e-21
-1.36608515e-21
-2.18662707e-21
-1.174187655e-21
-1.98751449e-21
-1.00972466e-21
-1.798684963e-21
-8.689353568e-22
-1.62197279e-21
-7.484538322e-22
-1.458328286e-21
-6.453195284e-22
-1.308060122e-21
-5.569610812e-22
-1.171025496e-21
-4.811654705e-22
-1.046776126e-21
-4.160404135e-22
-9.346681434e-22
-3.599750241e-22
-8.339433414e-22
-3.116017393e-22
-7.437881081e-22
-2.697611544e-22
-6.633753077e-22
-2.334705232e-22
-5.918933031e-22
-2.018961252e-22
-5.285654221e-22
-1.743293814e-22
-4.726624197e-22
-1.501664191e-22
-4.235098842e-22
-1.288907094e-22
-3.804920612e-22
-1.100583746e-22
-3.430531995e-22
-9.32857783e-23
-3.106972405e-22
-7.823903784e-23
-2.829864567e-22
-6.462513562e-23
-2.595394839e-22
-5.218434677e-23
-2.400290693e-22
-4.068373579e-23
-2.241797696e-22
-2.991150896e-23
-2.117657639e-22
-1.967203795e-23
-2.026088997e-22
-9.78139372e-24
-1.96577055e-22
-1.935828689e-22
-1.530666437e-08
1.247611436e-09
-4.572962928e-08
-1.941896845e-08
-8.039592563e-08
-8.677496464e-08
-9.472192975e-08
-1.614318876e-07
-7.351438656e-08
-1.912316593e-07
-2.847609505e-08
-1.421055914e-07
6.894609515e-10
-4.209767752e-08
9.690056917e-19
-1.388153294e-09
-8.30284376e-21
-4.15138837e-23
-8.05987137e-21
-1.053882215e-21
-7.628065938e-21
-1.980026457e-21
-7.05398519e-21
-2.753118939e-21
-6.392311666e-21
-3.339407674e-21
-5.694237882e-21
-3.733909157e-21
-5.001100985e-21
-3.952402282e-21
-4.342410542e-21
-4.02219862e-21
-3.736599909e-21
-3.974707963e-21
-3.193070868e-21
-3.840493723e-21
-2.714571187e-21
-3.646539491e-21
-2.2993762e-21
-3.415126109e-21
-1.943052227e-21
-3.163723619e-21
-1.639762239e-21
-2.905433626e-21
-1.383164509e-21
-2.649667956e-21
-1.166987664e-21
-2.402874428e-21
-9.853673026e-22
-2.169209391e-21
-8.330172414e-22
-1.951113469e-21
-7.052924007e-22
-1.749779852e-21
-5.981849579e-22
-1.565521595e-21
-5.082826663e-22
-1.398051787e-21
-4.327084957e-22
-1.246692407e-21
-3.690537013e-22
-1.110526882e-21
-3.153115473e-22
-9.885093324e-22
-2.698156587e-22
-8.795411864e-22
-2.31184884e-22
-7.825236061e-22
-1.982752694e-22
-6.963922553e-22
-1.701389986e-22
-6.20139357e-22
-1.459897531e-22
-5.528267392e-22
-1.251737692e-22
-4.935926003e-22
-1.071458192e-22
-4.416539909e-22
-9.14493691e-23
-3.963064617e-22
-7.770022838e-23
-3.569219166e-22
-6.557308892e-23
-3.229454136e-22
-5.479042977e-23
-2.938914372e-22
-4.511334472e-23
-2.693400076e-22
-3.63339187e-23
-2.489328804e-22
-2.826883979e-23
-2.323700086e-22
-2.075398461e-23
-2.194063822e-22
-1.363975669e-23
-2.098493216e-22
-6.786990495e-24
-2.035562737e-22
-2.004331388e-22
5.601999484e-09
5.007490041e-09
-1.593946073e-08
2.122491781e-09
-5.627225225e-08
-4.644217307e-08
-8.846167756e-08
-1.292424622e-07
-8.533289274e-08
-1.943604441e-07
-4.447696168e-08
-1.829615225e-07
-1.96145813e-09
-8.461318104e-08
-2.466559942e-18
-3.3496114e-09
-9.32158568e-21
-1.40623117e-22
-8.9856579e-21
-1.389814586e-21
-8.400989691e-21
-2.564704421e-21
-7.640248808e-21
-3.513874797e-21
-6.786891741e-21
-4.192784722e-21
-5.91286727e-21
-4.607958548e-21
-5.071054131e-21
-4.794245231e-21
-4.295072524e-21
-4.798214873e-21
-3.602520466e-21
-4.667299445e-21
-2.999227962e-21
-4.443830358e-21
-2.483245108e-21
-4.162571108e-21
-2.048039192e-21
-3.850385337e-21
-1.684809281e-21
-3.5270113e-21
-1.384028806e-21
-3.20627623e-21
-1.136391764e-21
-2.897371383e-21
-9.333348347e-22
-2.606001885e-21
-7.672773527e-22
-2.335341429e-21
-6.316851963e-22
-2.086784086e-21
-5.210327159e-22
-1.860514571e-21
-4.307117659e-22
-1.655928429e-21
-3.569187098e-22
-1.471934235e-21
-2.965377469e-22
-1.307166129e-21
-2.470306639e-22
-1.160129946e-21
-2.063379117e-22
-1.029301139e-21
-1.727927609e-22
-9.131883133e-22
-1.45048498e-22
-8.103726123e-22
-1.220176835e-22
-7.195304229e-22
-1.028220748e-22
-6.394447691e-22
-8.675170205e-23
-5.690092041e-22
-7.323163987e-23
-5.072268798e-22
-6.179515157e-23
-4.532066567e-22
-5.206205101e-23
-4.061575334e-22
-4.372129934e-23
-3.653822653e-22
-3.651701393e-23
-3.302707532e-22
-3.023721006e-23
-3.002935829e-22
-2.470471823e-23
-2.749959585e-22
-1.976982258e-23
-2.539921814e-22
-1.530425054e-23
-2.369607608e-22
-1.119621174e-23
-2.23640204e-22
-7.346238507e-24
-2.138255086e-22
-3.66362192e-24
-2.073653623e-22
-2.041600494e-22
2.070149147e-08
4.179811869e-09
1.314933306e-08
9.674650214e-09
-2.146913586e-08
-1.182370411e-08
-6.77382347e-08
-8.297336332e-08
-8.84965318e-08
-1.73602147e-07
-6.234279518e-08
-2.091152591e-07
-1.155759815e-08
-1.353983781e-07
-1.675769983e-17
-1.490720953e-08
-1.058797887e-20
-2.386277488e-23
-1.015984473e-20
-1.817953317e-21
-9.349936469e-21
-3.374622438e-21
-8.319190726e-21
-4.544635519e-21
-7.202239244e-21
-5.30975619e-21
-6.09938635e-21
-5.710836366e-21
-5.07526061e-21
-5.818400787e-21
-4.164368542e-21
-5.709141596e-21
-3.379225069e-21
-5.452482349e-21
-2.71810296e-21
-5.104996608e-21
-2.171157995e-21
-4.709564848e-21
-1.724734279e-21
-4.296862376e-21
-1.364120168e-21
-3.887683194e-21
-1.075152491e-21
-3.495306049e-21
-8.450381448e-22
-3.127552126e-21
-6.626813594e-22
-2.788429213e-21
-5.187209447e-22
-2.479376414e-21
-4.054126688e-22
-2.200170838e-21
-3.164411262e-22
-1.949568368e-21
-2.467107512e-22
-1.725744704e-21
-1.92143141e-22
-1.526591253e-21
-1.49493948e-22
-1.349908098e-21
-1.161944061e-22
-1.193525486e-21
-9.021799728e-23
-1.05537662e-21
-6.997044657e-23
-9.335378585e-22
-5.42002279e-23
-8.262475928e-22
-4.192650124e-23
-7.319115215e-22
-3.23815288e-23
-6.49099564e-22
-2.496492487e-23
-5.765379194e-22
-1.92074642e-23
-5.130985771e-22
-1.474254418e-23
-4.577877735e-22
-1.128373431e-23
-4.097343337e-22
-8.607141844e-24
-3.681784741e-22
-6.537570956e-24
-3.324613977e-22
-4.937658331e-24
-3.020158565e-22
-3.699334653e-24
-2.763577603e-22
-2.737095264e-24
-2.550788451e-22
-1.98266936e-24
-2.378403856e-22
-1.380760276e-24
-2.243679148e-22
-8.855939402e-25
-2.144469073e-22
-4.580615673e-25
-2.079193852e-22
-2.046814083e-22
2.872156546e-08
2.80679873e-09
2.977070713e-08
8.625508567e-09
1.128354342e-08
6.663459634e-09
-3.738789414e-08
-3.430192572e-08
-8.174601025e-08
-1.292440308e-07
-7.832170713e-08
-2.125395622e-07
-2.790144848e-08
-1.858186367e-07
-2.140621664e-17
-4.280865803e-08
-1.244701014e-20
-2.548342428e-22
-1.171619044e-20
-2.548777611e-21
-1.051985842e-20
-4.570964216e-21
-9.084514714e-21
-5.979994204e-21
-7.603671163e-21
-6.790619732e-21
-6.207333604e-21
-7.107198854e-21
-4.966348147e-21
-7.059416066e-21
-3.907991947e-21
-6.767532456e-21
-3.031953626e-21
-6.32856011e-21
-2.322824536e-21
-5.814169847e-21
-1.758559488e-21
-5.273878679e-21
-1.315621502e-21
-4.739853696e-21
-9.717821482e-22
-4.23158034e-21
-7.074186273e-22
-3.759731724e-21
-5.059224475e-22
-3.329114716e-21
-3.536274639e-22
-2.940794752e-21
-2.395091648e-22
-2.593569297e-21
-1.548010908e-22
-2.284957403e-21
-9.260693158e-23
-2.011844796e-21
-4.75463122e-23
-1.770891238e-21
-1.544914589e-23
-1.558777844e-21
6.898989548e-24
-1.372349025e-21
2.196407121e-23
-1.208686583e-21
3.162956636e-23
-1.065141204e-21
3.732778535e-23
-9.393380887e-22
4.01429892e-23
-8.291675756e-22
4.089182123e-23
-7.327677428e-22
4.018575246e-23
-6.485033352e-22
3.847938321e-23
-5.74943679e-22
3.610769266e-23
-5.108411409e-22
3.331469228e-23
-4.551109877e-22
3.027541727e-23
-4.068130669e-22
2.711276918e-23
-3.651354602e-22
2.391038919e-23
-3.29380109e-22
2.072247801e-23
-2.989503241e-22
1.758127322e-23
-2.733400514e-22
1.450273574e-23
-2.521247495e-22
1.149087347e-23
-2.349537397e-22
8.541036663e-24
-2.21543897e-22
5.642447499e-24
-2.116745676e-22
2.780173067e-24
-2.051836184e-22
-2.019645403e-22
3.316366617e-08
2.249959745e-09
3.491622325e-08
6.872951529e-09
3.020804007e-08
1.137164284e-08
-5.178536372e-09
1.084650752e-09
-6.47000355e-08
-6.972253164e-08
-8.923816356e-08
-1.880014341e-07
-4.89035898e-08
-2.261532104e-07
-7.860465751e-19
-9.171224787e-08
-1.491752184e-20
-6.012609558e-22
-1.373787243e-20
-3.728431615e-21
-1.192896057e-20
-6.379885833e-21
-9.895659953e-21
-8.013309805e-21
-7.920897318e-21
-8.765402362e-21
-6.160151331e-21
-8.867969776e-21
-4.674949206e-21
-8.544648017e-21
-3.469377798e-21
-7.973138531e-21
-2.517810911e-21
-7.280166443e-21
-1.782694221e-21
-6.549330694e-21
-1.224631972e-21
-5.83198972e-21
-8.074015573e-22
-5.157137453e-21
-4.999576083e-22
-4.539082092e-21
-2.768069835e-22
-3.982944513e-21
-1.175965023e-22
-3.488391618e-21
-6.389630147e-24
-3.052072192e-21
6.911827945e-23
-2.669151803e-21
1.183281991e-22
-2.334245825e-21
1.483632056e-22
-2.041962085e-21
1.645828472e-22
-1.787196808e-21
1.709942531e-22
-1.565278688e-21
1.705746697e-22
-1.372022248e-21
1.65521316e-22
-1.203729258e-21
1.574432235e-22
-1.057162216e-21
1.475076025e-22
-9.295044942e-22
1.365509934e-22
-8.183157608e-22
1.25163378e-22
-7.214875324e-22
1.137516432e-22
-6.372014562e-22
1.025873419e-22
-5.638915227e-22
9.184254388e-23
-5.002106133e-22
8.161667031e-23
-4.450013449e-22
7.195651225e-23
-3.972709333e-22
6.287110214e-23
-3.561697005e-22
5.434270289e-23
-3.209728173e-22
4.633487226e-23
-2.910648884e-22
3.879832752e-23
-2.659270185e-22
3.167516029e-23
-2.451260401e-22
2.490181882e-23
-2.283056305e-22
1.841117626e-23
-2.151790893e-22
1.213392896e-23
-2.055235855e-22
5.999514982e-24
-1.991757276e-22
-1.960283373e-22
3.708411508e-08
2.194397569e-09
3.740488368e-08
6.552182958e-09
3.731187424e-08
1.146465231e-08
2.150024755e-08
1.689627748e-08
-3.5820698e-08
-1.240158606e-08
-8.888897115e-08
-1.349331609e-07
-6.96637005e-08
-2.45378481e-07
2.518737172e-17
-1.613759484e-07
-1.84267973e-20
-1.201781045e-21
-1.638908049e-20
-5.766153015e-21
-1.356306356e-20
-9.205912524e-21
-1.064890794e-20
-1.092748041e-20
-8.024581102e-21
-1.13897492e-20
-5.837717323e-21
-1.105485849e-20
-4.104073124e-21
-1.027832205e-20
-2.776823715e-21
-9.300422612e-21
-1.787232049e-21
-8.269797561e-21
-1.065498329e-21
-7.271108578e-21
-5.498513495e-22
-6.347685498e-21
-1.893718857e-22
-5.517670268e-21
5.618156778e-23
-4.784693356e-21
2.177626134e-22
-4.144587732e-21
3.187470545e-22
-3.58944249e-21
3.765576484e-22
-3.109953363e-21
4.040511918e-22
-2.696719954e-21
4.106374377e-22
-2.340910586e-21
4.031518211e-22
-2.034558762e-21
3.865218809e-22
-1.770652809e-21
3.642691722e-22
-1.54311543e-21
3.388838374e-22
-1.346729733e-21
3.121024336e-22
-1.177043897e-21
2.851131397e-22
-1.030272039e-21
2.587068723e-22
-9.032002669e-22
2.333883085e-22
-7.931020051e-22
2.094572798e-22
-6.976639224e-22
1.870683086e-22
-6.149223549e-22
1.66274035e-22
-5.43209408e-22
1.470567735e-22
-4.811076363e-22
1.293513279e-22
-4.274121443e-22
1.130613672e-22
-3.810990114e-22
9.807106065e-23
-3.412990586e-22
8.425322478e-23
-3.072761032e-22
7.147490678e-23
-2.784089795e-22
5.96010866e-23
-2.541767244e-22
4.84970025e-23
-2.341464279e-22
3.802947362e-23
-2.179633479e-22
2.806749653e-23
-2.053429609e-22
1.848232245e-23
-1.960646904e-22
9.147170451e-24
-1.899671124e-22
-1.869444848e-22
4.136634369e-08
2.242136303e-09
4.111086513e-08
6.807661531e-09
4.12573106e-08
1.131820688e-08
3.978040238e-08
1.837318572e-08
4.188801753e-09
2.31900146e-08
-6.917839693e-08
-6.156596222e-08
-8.312866623e-08
-2.314282117e-07
1.793676969e-17
-2.445046145e-07
-2.369175316e-20
-2.718810488e-21
-1.983000274e-20
-9.627908036e-21
-1.528691644e-20
-1.374900858e-20
-1.111348279e-20
-1.510092905e-20
-7.691466459e-21
-1.481178553e-20
-5.062382092e-21
-1.36839678e-20
-3.126917118e-21
-1.221381686e-20
-1.746622303e-21
-1.06807521e-20
-7.887600112e-22
-9.227699311e-21
-1.42166192e-22
-7.917746567e-21
2.801455559e-22
-6.770046052e-21
5.436257349e-22
-5.781203804e-21
6.963266551e-22
-4.937452095e-21
7.729543087e-22
-4.221277567e-21
7.982831339e-22
-3.614837755e-21
7.898351783e-22
-3.101575994e-21
7.599003629e-22
-2.666859754e-21
7.170242968e-22
-2.298113043e-21
6.67088142e-22
-1.984704911e-21
6.140853295e-22
-1.717735948e-21
5.606771162e-22
-1.489796678e-21
5.085885922e-22
-1.294734039e-21
4.588903527e-22
-1.127441711e-21
4.121985376e-22
-9.836793524e-22
3.688166948e-22
-8.599204756e-22
3.288362045e-22
-7.532263346e-22
2.922071824e-22
-6.61142331e-22
2.58788339e-22
-5.816133933e-22
2.28381828e-22
-5.129150681e-22
2.007573824e-22
-4.535974875e-22
1.756688043e-22
-4.024398234e-22
1.528649989e-22
-3.58413257e-22
1.320971203e-22
-3.206508569e-22
1.131229518e-22
-2.884230687e-22
9.57093253e-23
-2.611177744e-22
7.963315584e-23
-2.382240931e-22
6.46815043e-23
-2.193192603e-22
5.065096293e-23
-2.040580648e-22
3.734657371e-23
-1.921644323e-22
2.458042884e-23
-1.834248363e-22
1.217005953e-23
-1.776832917e-22
-1.74837748e-22
4.592069928e-08
2.286280323e-09
4.583932016e-08
6.889040658e-09
4.529059605e-08
1.186693102e-08
4.697911229e-08
1.668466953e-08
3.883098487e-08
3.133814208e-08
-2.7153388e-08
4.418410648e-09
-8.220737252e-08
-1.763742272e-07
-3.157738827e-17
-3.267119868e-07
-3.172686236e-20
-7.961207447e-21
-2.395722107e-20
-1.739755392e-20
-1.664446573e-20
-2.106177369e-20
-1.082834877e-20
-2.0917061e-20
-6.56613108e-21
-1.907402322e-20
-3.593629466e-21
-1.665649436e-20
-1.594568057e-21
-1.421290811e-20
-2.938857253e-22
-1.198146912e-20
5.210964462e-22
-1.004272094e-20
1.005550944e-21
-8.402245239e-21
1.269056412e-21
-7.03360033e-21
1.387464857e-21
-5.899665613e-21
1.41259029e-21
-4.962635352e-21
1.37947683e-21
-4.188226294e-21
1.311618005e-21
-3.547045375e-21
1.224614258e-21
-3.014642841e-21
1.128700199e-21
-2.571020319e-21
1.030476903e-21
-2.19996828e-21
9.340941341e-22
-1.888404453e-21
8.420553498e-22
-1.625783123e-21
7.557652747e-22
-1.403596072e-21
6.759021114e-22
-1.214963714e-21
6.026703355e-22
-1.054305998e-21
5.359721011e-22
-9.170802557e-22
4.755231028e-22
-7.995735382e-22