/*--------------------------------*- C++ -*----------------------------------*\
  =========                 |
  \\      /  F ield         | OpenFOAM: The Open Source CFD Toolbox
   \\    /   O peration     | Website:  https://openfoam.org
    \\  /    A nd           | Version:  6
     \\/     M anipulation  |
\*---------------------------------------------------------------------------*/
FoamFile
{
    version     2.0;
    format      ascii;
    class       volScalarField;
    location    "0.06";
    object      pVap;
}
// * * * * * * * * * * * * * * * * * * * * * * * * * * * * * * * * * * * * * //

dimensions      [1 -1 -2 0 0 0 0];

internalField   nonuniform List<scalar> 
2500
(
55293.0681
55293.00772
55292.93274
55292.85296
55292.77721
55292.70999
55292.64927
55292.61048
1.07444617
1.074308816
1.074267988
1.074256639
1.074253595
1.074252789
1.074252573
1.074252513
1.074252496
1.074252491
1.074252489
1.074252489
1.074252489
1.074252489
1.074252489
1.074252489
1.074252489
1.074252489
1.074252489
1.074252489
1.074252489
1.074252489
1.074252489
1.074252489
1.074252489
1.074252489
1.074252489
1.074252489
1.074252489
1.074252489
1.074252489
1.074252489
1.074252489
1.074252489
1.074252489
1.074252489
1.074252489
1.074252489
1.074252489
1.074252489
1.074252489
1.074252489
55293.80319
55293.70056
55293.53511
55293.33404
55293.12765
55292.93924
55292.76417
55292.60859
1.074849349
1.074429405
1.074302145
1.074266103
1.074256235
1.074253548
1.074252801
1.074252585
1.074252519
1.074252498
1.074252492
1.07425249
1.074252489
1.074252489
1.074252489
1.074252489
1.074252489
1.074252489
1.074252489
1.074252489
1.074252489
1.074252489
1.074252489
1.074252489
1.074252489
1.074252489
1.074252489
1.074252489
1.074252489
1.074252489
1.074252489
1.074252489
1.074252489
1.074252489
1.074252489
1.074252489
1.074252489
1.074252489
1.074252489
1.074252489
1.074252489
1.074252489
55294.32999
55294.23582
55294.04748
55293.7745
55293.46044
55293.16408
55292.8797
55292.6083
1.07530523
1.074575565
1.074346739
1.074279616
1.074260454
1.074254934
1.074253278
1.074252752
1.074252577
1.074252518
1.074252498
1.074252492
1.07425249
1.074252489
1.074252489
1.074252489
1.074252489
1.074252489
1.074252489
1.074252489
1.074252489
1.074252489
1.074252489
1.074252489
1.074252489
1.074252489
1.074252489
1.074252489
1.074252489
1.074252489
1.074252489
1.074252489
1.074252489
1.074252489
1.074252489
1.074252489
1.074252489
1.074252489
1.074252489
1.074252489
1.074252489
1.074252489
55294.70343
55294.6291
55294.45365
55294.16321
55293.77346
55293.38446
55292.99601
55292.60984
1.075852909
1.074769055
1.074412476
1.074302253
1.074268614
1.074258012
1.07425446
1.0742532
1.074252741
1.074252575
1.074252517
1.074252497
1.074252491
1.074252489
1.074252489
1.074252489
1.074252489
1.074252489
1.074252489
1.074252489
1.074252489
1.074252489
1.074252489
1.074252489
1.074252489
1.074252489
1.074252489
1.074252489
1.074252489
1.074252489
1.074252489
1.074252489
1.074252489
1.074252489
1.074252489
1.074252489
1.074252489
1.074252489
1.074252489
1.074252489
1.074252489
1.074252489
55294.979
55294.92442
55294.77137
55294.48862
55294.06554
55293.59208
55293.10861
55292.61915
1.076536384
1.075043268
1.074519608
1.074345205
1.074286482
1.074265549
1.074257583
1.074254439
1.074253205
1.074252738
1.074252571
1.074252514
1.074252496
1.074252491
1.074252489
1.074252489
1.074252489
1.074252489
1.074252489
1.074252489
1.074252489
1.074252489
1.074252489
1.074252489
1.074252489
1.074252489
1.074252489
1.074252489
1.074252489
1.074252489
1.074252489
1.074252489
1.074252489
1.074252489
1.074252489
1.074252489
1.074252489
1.074252489
1.074252489
1.074252489
1.074252489
1.074252489
55295.19506
55295.15964
55295.03204
55294.76572
55294.33689
55293.78478
55293.21446
55292.62951
1.077434619
1.075465698
1.074714021
1.074435864
1.074328834
1.074284821
1.074265925
1.07425783
1.074254492
1.074253194
1.074252721
1.074252561
1.07425251
1.074252495
1.07425249
1.074252489
1.074252489
1.074252489
1.074252489
1.074252489
1.074252489
1.074252489
1.074252489
1.074252489
1.074252489
1.074252489
1.074252489
1.074252489
1.074252489
1.074252489
1.074252489
1.074252489
1.074252489
1.074252489
1.074252489
1.074252489
1.074252489
1.074252489
1.074252489
1.074252489
1.074252489
1.074252489
55295.37612
55295.35944
55295.26038
55295.0183
55294.59091
55293.99223
55293.32377
55292.637
1.078753413
1.076198479
1.07510819
1.074642992
1.074433323
1.074334486
1.074287922
1.07426687
1.074257939
1.074254416
1.074253125
1.074252686
1.074252546
1.074252504
1.074252493
1.07425249
1.074252489
1.074252489
1.074252489
1.074252489
1.074252489
1.074252489
1.074252489
1.074252489
1.074252489
1.074252489
1.074252489
1.074252489
1.074252489
1.074252489
1.074252489
1.074252489
1.074252489
1.074252489
1.074252489
1.074252489
1.074252489
1.074252489
1.074252489
1.074252489
1.074252489
1.074252489
55295.53846
55295.54051
55295.47431
55295.26686
55294.85531
55294.22312
55293.45466
55292.64872
1.081007464
1.077642871
1.075979785
1.075136563
1.074693001
1.074460566
1.074344303
1.074290122
1.074266808
1.074257557
1.074254162
1.074253006
1.074252639
1.07425253
1.074252499
1.074252491
1.074252489
1.074252489
1.074252489
1.074252489
1.074252489
1.074252489
1.074252489
1.074252489
1.074252489
1.074252489
1.074252489
1.074252489
1.074252489
1.074252489
1.074252489
1.074252489
1.074252489
1.074252489
1.074252489
1.074252489
1.074252489
1.074252489
1.074252489
1.074252489
1.074252489
1.074252489
55295.69267
55295.71366
55295.68608
55295.52663
55295.15322
55294.50621
55293.62525
55292.66363
1.085446922
1.080771969
1.077996294
1.076321982
1.075328208
1.074771294
1.074483514
1.074347479
1.07428864
1.074265266
1.074256699
1.074253787
1.074252864
1.074252591
1.074252515
1.074252495
1.07425249
1.074252489
1.074252489
1.074252489
1.074252489
1.074252489
1.074252489
1.074252489
1.074252489
1.074252489
1.074252489
1.074252489
1.074252489
1.074252489
1.074252489
1.074252489
1.074252489
1.074252489
1.074252489
1.074252489
1.074252489
1.074252489
1.074252489
1.074252489
1.074252489
1.074252489
55295.84456
55295.88382
55295.90047
55295.80296
55295.49134
55294.86092
55293.86851
55292.68165
1.09500898
1.087862546
1.082699471
1.079123275
1.076835298
1.075508056
1.074812684
1.07448262
1.074339882
1.074283297
1.074262611
1.074255601
1.074253387
1.074252733
1.074252552
1.074252504
1.074252492
1.07425249
1.074252489
1.074252489
1.074252489
1.074252489
1.074252489
1.074252489
1.074252489
1.074252489
1.074252489
1.074252489
1.074252489
1.074252489
1.074252489
1.074252489
1.074252489
1.074252489
1.074252489
1.074252489
1.074252489
1.074252489
1.074252489
1.074252489
1.074252489
1.074252489
55295.99721
55296.05069
55296.11404
55296.09111
55295.86415
55295.2879
55294.21173
55292.71889
1.116431977
1.104061038
1.093500952
1.085544984
1.08027346
1.077179235
1.075555102
1.074785813
1.074454299
1.074323383
1.074275707
1.074259605
1.074254537
1.074253044
1.074252631
1.074252523
1.074252497
1.074252491
1.074252489
1.074252489
1.074252489
1.074252489
1.074252489
1.074252489
1.074252489
1.074252489
1.074252489
1.074252489
1.074252489
1.074252489
1.074252489
1.074252489
1.074252489
1.074252489
1.074252489
1.074252489
1.074252489
1.074252489
1.074252489
1.074252489
1.074252489
1.074252489
55296.15354
55296.2131
55296.31796
55296.37917
55296.25889
55295.77218
55294.66441
55293.28258
1.165054861
1.140714822
1.117662865
1.099726945
1.08777921
1.080792445
1.077147585
1.075431914
1.074696779
1.074407939
1.074303216
1.074267987
1.074256937
1.074253692
1.074252797
1.074252563
1.074252506
1.074252493
1.07425249
1.074252489
1.074252489
1.074252489
1.074252489
1.074252489
1.074252489
1.074252489
1.074252489
1.074252489
1.074252489
1.074252489
1.074252489
1.074252489
1.074252489
1.074252489
1.074252489
1.074252489
1.074252489
1.074252489
1.074252489
1.074252489
1.074252489
1.074252489
55296.31523
55296.37598
55296.50439
55296.65356
55296.66366
55296.30837
55295.23198
55295.49971
1.276696051
1.222737448
1.17023871
1.129851151
1.103427172
1.088221809
1.080388742
1.076736767
1.075183501
1.074576813
1.074357926
1.074284596
1.074261678
1.074254969
1.074253122
1.074252642
1.074252524
1.074252497
1.07425249
1.074252489
1.074252489
1.074252489
1.074252489
1.074252489
1.074252489
1.074252489
1.074252489
1.074252489
1.074252489
1.074252489
1.074252489
1.074252489
1.074252489
1.074252489
1.074252489
1.074252489
1.074252489
1.074252489
1.074252489
1.074252489
1.074252489
1.074252489
55296.48747
55296.54709
55296.68601
55296.90445
55297.06967
55296.90005
55295.94316
55294.03753
1.540591246
1.406636908
1.28238355
1.191598479
1.134594636
1.102733039
1.086636471
1.079229025
1.076106864
1.074895497
1.074460722
1.074315689
1.074270525
1.074257344
1.074253725
1.074252787
1.074252557
1.074252504
1.074252492
1.074252489
1.074252489
1.074252489
1.074252489
1.074252489
1.074252489
1.074252489
1.074252489
1.074252489
1.074252489
1.074252489
1.074252489
1.074252489
1.074252489
1.074252489
1.074252489
1.074252489
1.074252489
1.074252489
1.074252489
1.074252489
1.074252489
1.074252489
55296.67346
55296.73535
55296.8845
55297.13804
55297.46917
55297.548
55296.83411
55294.1107
2.210221158
1.83206161
1.521041382
1.314810626
1.194089443
1.129658337
1.098026235
1.08372179
1.077758797
1.075462461
1.074642803
1.074370563
1.074286091
1.074261511
1.074254781
1.074253041
1.074252615
1.074252516
1.074252495
1.07425249
1.074252489
1.074252489
1.074252489
1.074252489
1.074252489
1.074252489
1.074252489
1.074252489
1.074252489
1.074252489
1.074252489
1.074252489
1.074252489
1.074252489
1.074252489
1.074252489
1.074252489
1.074252489
1.074252489
1.074252489
1.074252489
1.074252489
55296.87395
55296.94134
55297.10563
55297.40274
55297.84802
55298.24171
55297.92346
55295.2919
4.1530404
2.893686777
2.041957077
1.557662125
1.303585189
1.17717602
1.1176423
1.091350289
1.080539219
1.076411077
1.0749461
1.074461644
1.074311849
1.07426839
1.07425652
1.074253459
1.074252711
1.074252537
1.074252499
1.074252491
1.074252489
1.074252489
1.074252489
1.074252489
1.074252489
1.074252489
1.074252489
1.074252489
1.074252489
1.074252489
1.074252489
1.074252489
1.074252489
1.074252489
1.074252489
1.074252489
1.074252489
1.074252489
1.074252489
1.074252489
1.074252489
1.074252489
55297.08863
55297.16366
55297.34824
55297.68537
55298.22264
55298.94526
55299.17959
55297.14278
10.96573735
5.883059151
3.245682314
2.039200263
1.499477471
1.257108059
1.149530593
1.103523995
1.084930337
1.077899598
1.07541988
1.074603426
1.074351832
1.074279042
1.074259208
1.074254102
1.074252857
1.074252569
1.074252505
1.074252492
1.074252489
1.074252489
1.074252489
1.074252489
1.074252489
1.074252489
1.074252489
1.074252489
1.074252489
1.074252489
1.074252489
1.074252489
1.074252489
1.074252489
1.074252489
1.074252489
1.074252489
1.074252489
1.074252489
1.074252489
1.074252489
1.074252489
55297.31614
55297.40118
55297.61317
55298.00522
55298.64071
55299.58883
55300.50825
55299.54814
39.38898633
15.48719712
6.249267408
3.014796262
1.842841171
1.385528289
1.198402161
1.121734718
1.091416921
1.080082888
1.076111622
1.074809742
1.074409856
1.074294465
1.074263091
1.074255031
1.074253069
1.074252615
1.074252515
1.074252494
1.07425249
1.074252489
1.074252489
1.074252489
1.074252489
1.074252489
1.074252489
1.074252489
1.074252489
1.074252489
1.074252489
1.074252489
1.074252489
1.074252489
1.074252489
1.074252489
1.074252489
1.074252489
1.074252489
1.074252489
1.074252489
1.074252489
55297.55267
55297.65035
55297.89653
55298.35852
55299.11215
55300.2637
55301.7723
55302.15123
163.0898726
48.67751522
14.22453862
5.037771948
2.434107075
1.582546316
1.268839862
1.147178302
1.100343209
1.083063754
1.077051665
1.075089212
1.074488258
1.074315261
1.074268319
1.074256279
1.074253352
1.074252676
1.074252528
1.074252497
1.07425249
1.074252489
1.074252489
1.074252489
1.074252489
1.074252489
1.074252489
1.074252489
1.074252489
1.074252489
1.074252489
1.074252489
1.074252489
1.074252489
1.074252489
1.074252489
1.074252489
1.074252489
1.074252489
1.074252489
1.074252489
1.074252489
55297.79151
55297.90444
55298.19183
55298.73769
55299.63742
55300.98778
55302.87223
55304.54998
625.343943
157.7121031
35.43000698
9.23385456
3.425844451
1.8696115
1.363803093
1.180196622
1.111721484
1.086830634
1.078233972
1.075439634
1.074586341
1.074341229
1.074274836
1.074257832
1.074253705
1.074252753
1.074252544
1.0742525
1.074252491
1.074252489
1.074252489
1.074252489
1.074252489
1.074252489
1.074252489
1.074252489
1.074252489
1.074252489
1.074252489
1.074252489
1.074252489
1.074252489
1.074252489
1.074252489
1.074252489
1.074252489
1.074252489
1.074252489
1.074252489
1.074252489
55298.02276
55298.15298
55298.48738
55299.12865
55300.1984
55301.79669
55303.99533
55306.4916
1901.631087
455.6911126
86.91507771
17.51677825
5.006970948
2.26133911
1.482331094
1.219635809
1.12504186
1.091199828
1.079598883
1.075843028
1.074699022
1.074371014
1.0742823
1.07425961
1.074254108
1.07425284
1.074252562
1.074252503
1.074252492
1.074252489
1.074252489
1.074252489
1.074252489
1.074252489
1.074252489
1.074252489
1.074252489
1.074252489
1.074252489
1.074252489
1.074252489
1.074252489
1.074252489
1.074252489
1.074252489
1.074252489
1.074252489
1.074252489
1.074252489
1.074252489
55298.23368
55298.38195
55298.76556
55299.50662
55300.74975
55302.60289
55305.02226
55307.91948
4362.596169
1074.230799
190.9518614
32.05263249
7.305352411
2.749276284
1.616811443
1.262342794
1.139164935
1.095789123
1.08102611
1.076263761
1.074816341
1.074401982
1.074290053
1.074261454
1.074254526
1.07425293
1.07425258
1.074252507
1.074252492
1.074252489
1.074252489
1.074252489
1.074252489
1.074252489
1.074252489
1.074252489
1.074252489
1.074252489
1.074252489
1.074252489
1.074252489
1.074252489
1.074252489
1.074252489
1.074252489
1.074252489
1.074252489
1.074252489
1.074252489
1.074252489
55298.40996
55298.57519
55299.00487
55299.839
55301.23761
55303.30591
55305.89904
55308.89927
7706.35789
2009.018089
353.3503412
53.07280714
10.17801128
3.281312048
1.751149815
1.303139751
1.152387533
1.100048443
1.082345395
1.076651829
1.074924396
1.074430474
1.074297178
1.074263148
1.074254909
1.074253013
1.074252597
1.07425251
1.074252493
1.07425249
1.074252489
1.074252489
1.074252489
1.074252489
1.074252489
1.074252489
1.074252489
1.074252489
1.074252489
1.074252489
1.074252489
1.074252489
1.074252489
1.074252489
1.074252489
1.074252489
1.074252489
1.074252489
1.074252489
1.074252489
55298.53758
55298.71646
55299.18326
55300.09284
55301.61679
55303.84798
55306.5778
55309.50586
10927.65562
3002.998339
535.4503857
75.93407804
13.00907523
3.753304285
1.862108792
1.335603555
1.162733903
1.103357376
1.08336701
1.076951834
1.075007841
1.074452459
1.074302673
1.074264453
1.074255204
1.074253077
1.07425261
1.074252513
1.074252493
1.07425249
1.074252489
1.074252489
1.074252489
1.074252489
1.074252489
1.074252489
1.074252489
1.074252489
1.074252489
1.074252489
1.074252489
1.074252489
1.074252489
1.074252489
1.074252489
1.074252489
1.074252489
1.074252489
1.074252489
1.074252489
55298.6049
55298.79166
55299.27996
55300.23382
55301.8328
55304.15643
55306.99267
55309.79831
12891.30249
3650.262918
659.2861353
91.36805842
14.81781362
4.035708686
1.925473092
1.353688608
1.168433464
1.105171535
1.083925951
1.077115797
1.075053417
1.074464461
1.074305672
1.074265165
1.074255365
1.074253111
1.074252618
1.074252514
1.074252494
1.07425249
1.074252489
1.074252489
1.074252489
1.074252489
1.074252489
1.074252489
1.074252489
1.074252489
1.074252489
1.074252489
1.074252489
1.074252489
1.074252489
1.074252489
1.074252489
1.074252489
1.074252489
1.074252489
1.074252489
1.074252489
55298.6049
55298.79166
55299.27996
55300.23382
55301.8328
55304.15643
55306.99267
55309.79831
12891.30258
3650.262864
659.2861254
91.3680573
14.8178135
4.035708669
1.925473089
1.353688608
1.168433464
1.105171535
1.083925951
1.077115797
1.075053417
1.074464461
1.074305672
1.074265165
1.074255365
1.074253111
1.074252618
1.074252514
1.074252494
1.07425249
1.074252489
1.074252489
1.074252489
1.074252489
1.074252489
1.074252489
1.074252489
1.074252489
1.074252489
1.074252489
1.074252489
1.074252489
1.074252489
1.074252489
1.074252489
1.074252489
1.074252489
1.074252489
1.074252489
1.074252489
55298.53758
55298.71646
55299.18326
55300.09284
55301.61679
55303.84798
55306.5778
55309.50586
10927.65609
3002.998209
535.4503641
75.93407566
13.00907498
3.753304249
1.862108784
1.335603553
1.162733902
1.103357376
1.08336701
1.076951834
1.075007841
1.074452459
1.074302673
1.074264453
1.074255204
1.074253077
1.07425261
1.074252513
1.074252493
1.07425249
1.074252489
1.074252489
1.074252489
1.074252489
1.074252489
1.074252489
1.074252489
1.074252489
1.074252489
1.074252489
1.074252489
1.074252489
1.074252489
1.074252489
1.074252489
1.074252489
1.074252489
1.074252489
1.074252489
1.074252489
55298.40996
55298.57519
55299.00486
55299.839
55301.23761
55303.30591
55305.89904
55308.89927
7706.358545
2009.017975
353.3503245
53.07280537
10.17801109
3.281312018
1.751149808
1.303139749
1.152387533
1.100048443
1.082345395
1.076651829
1.074924396
1.074430474
1.074297178
1.074263148
1.074254909
1.074253013
1.074252597
1.07425251
1.074252493
1.07425249
1.074252489
1.074252489
1.074252489
1.074252489
1.074252489
1.074252489
1.074252489
1.074252489
1.074252489
1.074252489
1.074252489
1.074252489
1.074252489
1.074252489
1.074252489
1.074252489
1.074252489
1.074252489
1.074252489
1.074252489
55298.23367
55298.38195
55298.76556
55299.50662
55300.74975
55302.60289
55305.02226
55307.91951
4362.596537
1074.230766
190.9518576
32.05263214
7.305352374
2.749276278
1.616811441
1.262342793
1.139164935
1.095789123
1.08102611
1.076263761
1.074816341
1.074401982
1.074290053
1.074261454
1.074254526
1.07425293
1.07425258
1.074252507
1.074252492
1.074252489
1.074252489
1.074252489
1.074252489
1.074252489
1.074252489
1.074252489
1.074252489
1.074252489
1.074252489
1.074252489
1.074252489
1.074252489
1.074252489
1.074252489
1.074252489
1.074252489
1.074252489
1.074252489
1.074252489
1.074252489
55298.02276
55298.15298
55298.48738
55299.12865
55300.1984
55301.79669
55303.99533
55306.49237
1901.631073
455.6911373
86.91508161
17.51677879
5.006971036
2.261339128
1.482331099
1.21963581
1.125041861
1.091199828
1.079598883
1.075843028
1.074699022
1.074371014
1.0742823
1.07425961
1.074254108
1.07425284
1.074252562
1.074252503
1.074252492
1.074252489
1.074252489
1.074252489
1.074252489
1.074252489
1.074252489
1.074252489
1.074252489
1.074252489
1.074252489
1.074252489
1.074252489
1.074252489
1.074252489
1.074252489
1.074252489
1.074252489
1.074252489
1.074252489
1.074252489
1.074252489
55297.79151
55297.90444
55298.19183
55298.73769
55299.63742
55300.98778
55302.87223
55304.5529
625.3438367
157.7121304
35.43001115
9.23385521
3.425844575
1.86961153
1.363803102
1.180196625
1.111721485
1.086830634
1.078233972
1.075439634
1.074586341
1.074341229
1.074274836
1.074257832
1.074253705
1.074252753
1.074252544
1.0742525
1.074252491
1.074252489
1.074252489
1.074252489
1.074252489
1.074252489
1.074252489
1.074252489
1.074252489
1.074252489
1.074252489
1.074252489
1.074252489
1.074252489
1.074252489
1.074252489
1.074252489
1.074252489
1.074252489
1.074252489
1.074252489
1.074252489
55297.55267
55297.65034
55297.89653
55298.35852
55299.11215
55300.2637
55301.77229
55302.15555
163.0898719
48.67752641
14.22454072
5.037772371
2.434107176
1.582546345
1.268839871
1.147178305
1.10034321
1.083063754
1.077051665
1.075089212
1.074488258
1.074315261
1.074268319
1.074256279
1.074253352
1.074252676
1.074252528
1.074252497
1.07425249
1.074252489
1.074252489
1.074252489
1.074252489
1.074252489
1.074252489
1.074252489
1.074252489
1.074252489
1.074252489
1.074252489
1.074252489
1.074252489
1.074252489
1.074252489
1.074252489
1.074252489
1.074252489
1.074252489
1.074252489
1.074252489
55297.31613
55297.40118
55297.61316
55298.00522
55298.64071
55299.58882
55300.50825
55299.55051
39.38899466
15.48720017
6.249268199
3.014796475
1.842841235
1.38552831
1.198402168
1.12173472
1.091416922
1.080082888
1.076111622
1.074809742
1.074409856
1.074294465
1.074263091
1.074255031
1.074253069
1.074252615
1.074252515
1.074252494
1.07425249
1.074252489
1.074252489
1.074252489
1.074252489
1.074252489
1.074252489
1.074252489
1.074252489
1.074252489
1.074252489
1.074252489
1.074252489
1.074252489
1.074252489
1.074252489
1.074252489
1.074252489
1.074252489
1.074252489
1.074252489
1.074252489
55297.08863
55297.16366
55297.34824
55297.68536
55298.22263
55298.94526
55299.17958
55297.14373
10.96573914
5.883059897
3.245682582
2.039200357
1.499477505
1.257108071
1.149530598
1.103523996
1.084930338
1.077899598
1.07541988
1.074603426
1.074351832
1.074279042
1.074259208
1.074254102
1.074252857
1.074252569
1.074252505
1.074252492
1.074252489
1.074252489
1.074252489
1.074252489
1.074252489
1.074252489
1.074252489
1.074252489
1.074252489
1.074252489
1.074252489
1.074252489
1.074252489
1.074252489
1.074252489
1.074252489
1.074252489
1.074252489
1.074252489
1.074252489
1.074252489
1.074252489
55296.87394
55296.94134
55297.10563
55297.40274
55297.84802
55298.24171
55297.92346
55295.29157
4.153040726
2.893686963
2.041957165
1.557662163
1.303585205
1.177176027
1.117642302
1.09135029
1.080539219
1.076411077
1.0749461
1.074461644
1.074311849
1.07426839
1.07425652
1.074253459
1.074252711
1.074252537
1.074252499
1.074252491
1.074252489
1.074252489
1.074252489
1.074252489
1.074252489
1.074252489
1.074252489
1.074252489
1.074252489
1.074252489
1.074252489
1.074252489
1.074252489
1.074252489
1.074252489
1.074252489
1.074252489
1.074252489
1.074252489
1.074252489
1.074252489
1.074252489
55296.67346
55296.73535
55296.88449
55297.13803
55297.46917
55297.548
55296.83411
55294.10705
2.210221227
1.832061655
1.521041409
1.31481064
1.194089449
1.129658339
1.098026236
1.08372179
1.077758797
1.075462461
1.074642803
1.074370563
1.074286091
1.074261511
1.074254781
1.074253041
1.074252615
1.074252516
1.074252495
1.07425249
1.074252489
1.074252489
1.074252489
1.074252489
1.074252489
1.074252489
1.074252489
1.074252489
1.074252489
1.074252489
1.074252489
1.074252489
1.074252489
1.074252489
1.074252489
1.074252489
1.074252489
1.074252489
1.074252489
1.074252489
1.074252489
1.074252489
55296.48747
55296.54708
55296.68601
55296.90445
55297.06967
55296.90005
55295.94316
55294.02553
1.540591246
1.406636915
1.282383556
1.191598483
1.134594638
1.10273304
1.086636471
1.079229025
1.076106864
1.074895497
1.074460722
1.074315689
1.074270525
1.074257344
1.074253725
1.074252787
1.074252557
1.074252504
1.074252492
1.074252489
1.074252489
1.074252489
1.074252489
1.074252489
1.074252489
1.074252489
1.074252489
1.074252489
1.074252489
1.074252489
1.074252489
1.074252489
1.074252489
1.074252489
1.074252489
1.074252489
1.074252489
1.074252489
1.074252489
1.074252489
1.074252489
1.074252489
55296.31523
55296.37598
55296.50439
55296.65356
55296.66366
55296.30837
55295.23198
55295.36658
1.276696039
1.222737443
1.170238709
1.129851152
1.103427172
1.08822181
1.080388743
1.076736767
1.075183501
1.074576813
1.074357926
1.074284596
1.074261678
1.074254969
1.074253122
1.074252642
1.074252524
1.074252497
1.07425249
1.074252489
1.074252489
1.074252489
1.074252489
1.074252489
1.074252489
1.074252489
1.074252489
1.074252489
1.074252489
1.074252489
1.074252489
1.074252489
1.074252489
1.074252489
1.074252489
1.074252489
1.074252489
1.074252489
1.074252489
1.074252489
1.074252489
1.074252489
55296.15354
55296.2131
55296.31796
55296.37917
55296.25889
55295.77217
55294.66441
55293.26485
1.16505487
1.140714816
1.117662862
1.099726945
1.08777921
1.080792444
1.077147585
1.075431914
1.074696779
1.074407939
1.074303216
1.074267987
1.074256937
1.074253692
1.074252797
1.074252563
1.074252506
1.074252493
1.07425249
1.074252489
1.074252489
1.074252489
1.074252489
1.074252489
1.074252489
1.074252489
1.074252489
1.074252489
1.074252489
1.074252489
1.074252489
1.074252489
1.074252489
1.074252489
1.074252489
1.074252489
1.074252489
1.074252489
1.074252489
1.074252489
1.074252489
1.074252489
55295.99721
55296.05069
55296.11404
55296.09111
55295.86415
55295.28789
55294.21173
55292.74061
1.116431989
1.104061033
1.093500949
1.085544984
1.080273459
1.077179235
1.075555102
1.074785813
1.074454299
1.074323383
1.074275707
1.074259605
1.074254537
1.074253044
1.074252631
1.074252523
1.074252497
1.074252491
1.074252489
1.074252489
1.074252489
1.074252489
1.074252489
1.074252489
1.074252489
1.074252489
1.074252489
1.074252489
1.074252489
1.074252489
1.074252489
1.074252489
1.074252489
1.074252489
1.074252489
1.074252489
1.074252489
1.074252489
1.074252489
1.074252489
1.074252489
1.074252489
55295.84456
55295.88382
55295.90047
55295.80295
55295.49134
55294.86092
55293.86851
55292.69043
1.095008975
1.087862542
1.082699469
1.079123275
1.076835298
1.075508056
1.074812684
1.07448262
1.074339882
1.074283297
1.074262611
1.074255601
1.074253387
1.074252733
1.074252552
1.074252504
1.074252492
1.07425249
1.074252489
1.074252489
1.074252489
1.074252489
1.074252489
1.074252489
1.074252489
1.074252489
1.074252489
1.074252489
1.074252489
1.074252489
1.074252489
1.074252489
1.074252489
1.074252489
1.074252489
1.074252489
1.074252489
1.074252489
1.074252489
1.074252489
1.074252489
1.074252489
55295.69267
55295.71366
55295.68608
55295.52663
55295.15322
55294.50621
55293.62525
55292.66267
1.085446912
1.080771965
1.077996292
1.076321982
1.075328208
1.074771294
1.074483514
1.074347479
1.07428864
1.074265266
1.074256699
1.074253787
1.074252864
1.074252591
1.074252515
1.074252495
1.07425249
1.074252489
1.074252489
1.074252489
1.074252489
1.074252489
1.074252489
1.074252489
1.074252489
1.074252489
1.074252489
1.074252489
1.074252489
1.074252489
1.074252489
1.074252489
1.074252489
1.074252489
1.074252489
1.074252489
1.074252489
1.074252489
1.074252489
1.074252489
1.074252489
1.074252489
55295.53846
55295.5405
55295.47431
55295.26685
55294.85531
55294.22311
55293.45466
55292.64649
1.081007455
1.077642868
1.075979784
1.075136562
1.074693
1.074460566
1.074344303
1.074290122
1.074266808
1.074257557
1.074254162
1.074253006
1.074252639
1.07425253
1.074252499
1.074252491
1.074252489
1.074252489
1.074252489
1.074252489
1.074252489
1.074252489
1.074252489
1.074252489
1.074252489
1.074252489
1.074252489
1.074252489
1.074252489
1.074252489
1.074252489
1.074252489
1.074252489
1.074252489
1.074252489
1.074252489
1.074252489
1.074252489
1.074252489
1.074252489
1.074252489
1.074252489
55295.37612
55295.35944
55295.26037
55295.0183
55294.5909
55293.99223
55293.32377
55292.63539
1.078753406
1.076198477
1.075108189
1.074642991
1.074433323
1.074334486
1.074287922
1.07426687
1.074257939
1.074254416
1.074253125
1.074252686
1.074252546
1.074252504
1.074252493
1.07425249
1.074252489
1.074252489
1.074252489
1.074252489
1.074252489
1.074252489
1.074252489
1.074252489
1.074252489
1.074252489
1.074252489
1.074252489
1.074252489
1.074252489
1.074252489
1.074252489
1.074252489
1.074252489
1.074252489
1.074252489
1.074252489
1.074252489
1.074252489
1.074252489
1.074252489
1.074252489
55295.19506
55295.15963
55295.03204
55294.76572
55294.33689
55293.78478
55293.21446
55292.62616
1.077434611
1.075465696
1.07471402
1.074435863
1.074328834
1.074284821
1.074265925
1.07425783
1.074254492
1.074253194
1.074252721
1.074252561
1.07425251
1.074252495
1.07425249
1.074252489
1.074252489
1.074252489
1.074252489
1.074252489
1.074252489
1.074252489
1.074252489
1.074252489
1.074252489
1.074252489
1.074252489
1.074252489
1.074252489
1.074252489
1.074252489
1.074252489
1.074252489
1.074252489
1.074252489
1.074252489
1.074252489
1.074252489
1.074252489
1.074252489
1.074252489
1.074252489
55294.97899
55294.92442
55294.77137
55294.48861
55294.06553
55293.59208
55293.10861
55292.61968
1.076536382
1.075043266
1.074519607
1.074345205
1.074286482
1.074265549
1.074257583
1.074254439
1.074253205
1.074252738
1.074252571
1.074252514
1.074252496
1.074252491
1.074252489
1.074252489
1.074252489
1.074252489
1.074252489
1.074252489
1.074252489
1.074252489
1.074252489
1.074252489
1.074252489
1.074252489
1.074252489
1.074252489
1.074252489
1.074252489
1.074252489
1.074252489
1.074252489
1.074252489
1.074252489
1.074252489
1.074252489
1.074252489
1.074252489
1.074252489
1.074252489
1.074252489
55294.70343
55294.62909
55294.45364
55294.1632
55293.77346
55293.38446
55292.99601
55292.61686
1.075852915
1.074769054
1.074412476
1.074302253
1.074268614
1.074258012
1.07425446
1.0742532
1.074252741
1.074252575
1.074252517
1.074252497
1.074252491
1.074252489
1.074252489
1.074252489
1.074252489
1.074252489
1.074252489
1.074252489
1.074252489
1.074252489
1.074252489
1.074252489
1.074252489
1.074252489
1.074252489
1.074252489
1.074252489
1.074252489
1.074252489
1.074252489
1.074252489
1.074252489
1.074252489
1.074252489
1.074252489
1.074252489
1.074252489
1.074252489
1.074252489
1.074252489
55294.32999
55294.23582
55294.04748
55293.7745
55293.46044
55293.16408
55292.8797
55292.6141
1.075305236
1.074575565
1.074346739
1.074279616
1.074260454
1.074254934
1.074253278
1.074252752
1.074252577
1.074252518
1.074252498
1.074252492
1.07425249
1.074252489
1.074252489
1.074252489
1.074252489
1.074252489
1.074252489
1.074252489
1.074252489
1.074252489
1.074252489
1.074252489
1.074252489
1.074252489
1.074252489
1.074252489
1.074252489
1.074252489
1.074252489
1.074252489
1.074252489
1.074252489
1.074252489
1.074252489
1.074252489
1.074252489
1.074252489
1.074252489
1.074252489
1.074252489
55293.80318
55293.70056
55293.53511
55293.33404
55293.12765
55292.93924
55292.76417
55292.60877
1.074849348
1.074429405
1.074302144
1.074266103
1.074256235
1.074253548
1.074252801
1.074252585
1.074252519
1.074252498
1.074252492
1.07425249
1.074252489
1.074252489
1.074252489
1.074252489
1.074252489
1.074252489
1.074252489
1.074252489
1.074252489
1.074252489
1.074252489
1.074252489
1.074252489
1.074252489
1.074252489
1.074252489
1.074252489
1.074252489
1.074252489
1.074252489
1.074252489
1.074252489
1.074252489
1.074252489
1.074252489
1.074252489
1.074252489
1.074252489
1.074252489
1.074252489
55293.0681
55293.00772
55292.93274
55292.85296
55292.77721
55292.70999