/*--------------------------------*- C++ -*----------------------------------*\
  =========                 |
  \\      /  F ield         | OpenFOAM: The Open Source CFD Toolbox
   \\    /   O peration     | Website:  https://openfoam.org
    \\  /    A nd           | Version:  6
     \\/     M anipulation  |
\*---------------------------------------------------------------------------*/
FoamFile
{
    version     2.0;
    format      ascii;
    class       volScalarField;
    location    "0.06";
    object      Temperature;
}
// * * * * * * * * * * * * * * * * * * * * * * * * * * * * * * * * * * * * * //

dimensions      [0 0 0 1 0 0 0];

internalField   nonuniform List<scalar> 
2500
(
306.6167628
305.7619259
304.7066357
303.5925363
302.5428917
301.6182304
300.7885693
300.0234107
300.0045112
300.0013133
300.0003616
300.0000969
300.0000258
300.000007
300.000002
300.0000006
300.0000002
300.0000001
300
300
300
300
300
300
300
300
300
300
300
300
300
300
300
300
300
300
300
300
300
300
300
300
300
300
300
300
300
300
300
300
317.3906302
315.8421277
313.3735079
310.4230053
307.4527461
304.7925879
302.3627196
300.0706039
300.0138999
300.0041241
300.0011582
300.0003177
300.0000874
300.0000247
300.0000073
300.0000022
300.0000007
300.0000002
300.0000001
300
300
300
300
300
300
300
300
300
300
300
300
300
300
300
300
300
300
300
300
300
300
300
300
300
300
300
300
300
300
300
325.5747711
324.081263
321.1307235
316.9443076
312.2622626
307.9699621
303.9613021
300.1195613
300.0245076
300.0075291
300.0021979
300.0006328
300.0001859
300.0000571
300.0000184
300.0000061
300.0000021
300.0000007
300.0000002
300.0000001
300
300
300
300
300
300
300
300
300
300
300
300
300
300
300
300
300
300
300
300
300
300
300
300
300
300
300
300
300
300
331.6311597
330.4069923
327.5496567
322.9243362
316.9197606
311.1465523
305.5860952
300.1711485
300.0372388
300.0120337
300.0037295
300.0011605
300.0003761
300.0001288
300.000046
300.0000166
300.0000059
300.000002
300.0000007
300.0000002
300.0000001
300
300
300
300
300
300
300
300
300
300
300
300
300
300
300
300
300
300
300
300
300
300
300
300
300
300
300
300
300
336.2455533
335.3203113
332.7498801
328.1026226
321.3886554
314.1946165
307.1738072
300.2247831
300.0531096
300.0184134
300.0062243
300.0021612
300.0007925
300.0003045
300.0001188
300.0000455
300.0000167
300.0000058
300.0000019
300.0000006
300.0000002
300
300
300
300
300
300
300
300
300
300
300
300
300
300
300
300
300
300
300
300
300
300
300
300
300
300
300
300
300
339.9551828
339.3399249
337.1412839
332.6441874
325.6536069
317.0770714
308.6803641
300.2813454
300.0739473
300.0282352
300.0107493
300.0042724
300.0017791
300.0007536
300.0003133
300.0001246
300.0000467
300.0000164
300.0000054
300.0000017
300.0000005
300.0000001
300
300
300
300
300
300
300
300
300
300
300
300
300
300
300
300
300
300
300
300
300
300
300
300
300
300
300
300
343.1288016
342.8323508
341.0859084
336.8967545
329.7512852
320.2414719
310.2534737
300.3494966
300.1045153
300.045262
300.019919
300.0090938
300.0042123
300.0019105
300.0008258
300.0003353
300.0001271
300.000045
300.0000149
300.0000046
300.0000013
300.0000004
300.0000001
300
300
300
300
300
300
300
300
300
300
300
300
300
300
300
300
300
300
300
300
300
300
300
300
300
300
300
346.0265238
346.0616949
344.8690843
341.1925711
334.1325062
323.8431221
312.160687
300.4471393
300.1566973
300.0787916
300.0401806
300.0205768
300.0102569
300.0048466
300.0021393
300.0008772
300.0003339
300.0001182
300.000039
300.0000121
300.0000035
300.000001
300.0000002
300.0000001
300
300
300
300
300
300
300
300
300
300
300
300
300
300
300
300
300
300
300
300
300
300
300
300
300
300
348.825284
349.2087527
348.7000487
345.8043168
339.2146473
328.3751254
314.6834233
300.6097376
300.2592134
300.1512926
300.0869956
300.0481314
300.0250344
300.0120798
300.0053814
300.0022136
300.0008428
300.000298
300.0000982
300.0000303
300.0000088
300.0000024
300.0000006
300.0000002
300
300
300
300
300
300
300
300
300
300
300
300
300
300
300
300
300
300
300
300
300
300
300
300
300
300
351.6260021
352.3574868
352.6664817
350.8495328
345.1736711
334.2364351
318.3530782
300.916125
300.4788278
300.3149118
300.1958804
300.1131327
300.0600591
300.0292198
300.0130447
300.0053614
300.0020369
300.0007183
300.0002361
300.0000726
300.000021
300.0000057
300.0000015
300.0000004
300.0000001
300
300
300
300
300
300
300
300
300
300
300
300
300
300
300
300
300
300
300
300
300
300
300
300
300
354.4856462
355.4994037
356.7071581
356.2682215
351.9892666
341.5719279
323.6759683
301.529434
300.9650504
300.6853325
300.4444194
300.2615857
300.1397944
300.0680548
300.0303183
300.0124212
300.0047026
300.0016527
300.0005415
300.000166
300.0000478
300.000013
300.0000033
300.0000008
300.0000002
300
300
300
300
300
300
300
300
300
300
300
300
300
300
300
300
300
300
300
300
300
300
300
300
300
357.4630208
358.6100093
360.6499824
361.852311
359.5018097
350.2872484
330.9718606
302.7677861
302.0402289
301.5069497
300.9929629
300.586804
300.3131001
300.151833
300.0673303
300.0274575
300.0103501
300.0036232
300.0011829
300.0003615
300.0001038
300.0000281
300.0000072
300.0000017
300.0000004
300.0000001
300
300
300
300
300
300
300
300
300
300
300
300
300
300
300
300
300
300
300
300
300
300
300
300
360.596824
361.787604
364.3305471
367.3341633
367.5431832
360.4682069
340.5944182
305.3242086
304.373886
303.2684807
302.1530779
301.2660666
300.6711693
300.3233368
300.1425075
300.0577966
300.0216812
300.0075575
300.0024581
300.0007489
300.0002144
300.0000579
300.0000148
300.0000036
300.0000008
300.0000002
300
300
300
300
300
300
300
300
300
300
300
300
300
300
300
300
300
300
300
300
300
300
300
300
363.9972685
365.1881216
367.9932558
372.4940152
375.978032
372.4110015
353.4702243
310.5684114
309.2795904
306.8857176
304.4890905
302.6123306
301.3718395
300.6554786
300.2868707
300.1156505
300.0431624
300.0149796
300.0048538
300.0014739
300.0004208
300.0001133
300.0000289
300.000007
300.0000016
300.0000004
300.0000001
300
300
300
300
300
300
300
300
300
300
300
300
300
300
300
300
300
300
300
300
300
300
300
367.742855
369.0053662
372.0833458
377.4350296
384.665844
386.4319867
371.0424091
321.0653926
319.1592812
313.9467537
308.9430713
305.1334695
302.6658008
301.2621488
300.548242
300.2196481
300.0815497
300.0281776
300.0090961
300.0027531
300.0007839
300.0002106
300.0000535
300.0000129
300.000003
300.0000006
300.0000001
300
300
300
300
300
300
300
300
300
300
300
300
300
300
300
300
300
300
300
300
300
300
300
371.8679799
373.2746278
376.7483516
383.196683
393.2866934
402.6635433
395.054989
341.1554136
338.0265038
326.9579221
316.941893
309.57554
304.9128477
302.3038893
300.9930852
300.3953887
300.1460418
300.0502441
300.0161605
300.0048761
300.0013845
300.0003711
300.0000941
300.0000227
300.0000052
300.0000011
300.0000002
300
300
300
300
300
300
300
300
300
300
300
300
300
300
300
300
300
300
300
300
300
300
300
376.3890004
377.9939486
382.0013892
389.544144
402.2010849
420.5805713
426.9103234
377.225786
371.8595155
349.4346814
330.4000767
316.9065392
308.5679134
303.9796473
301.7024619
300.6736985
300.2476013
300.0848332
300.0271911
300.0081801
300.0023168
300.0006195
300.0001568
300.0000377
300.0000086
300.0000019
300.0000004
300.0000001
300
300
300
300
300
300
300
300
300
300
300
300
300
300
300
300
300
300
300
300
300
300
381.3010525
383.1691999
387.9063542
396.983303
412.6340629
438.4229771
466.711348
437.00873
428.3088786
385.5890857
351.4970467
328.1849525
314.1128507
306.4948438
302.7583719
301.0852437
300.3969852
300.1354895
300.0432873
300.0129868
300.0036696
300.0009793
300.0002475
300.0000594
300.0000135
300.0000029
300.0000006
300.0000001
300
300
300
300
300
300
300
300
300
300
300
300
300
300
300
300
300
300
300
300
300
300
386.5455038
388.7520533
394.4269155
405.536364
425.0662837
458.8309563
512.1282924
527.4337375
515.1963144
439.3650169
382.1252123
344.2724578
321.9189349
310.0005273
304.2187591
301.6509716
300.6013311
300.2045072
300.0651455
300.0194961
300.0054972
300.0014643
300.0003694
300.0000885
300.0000202
300.0000044
300.0000009
300.0000002
300
300
300
300
300
300
300
300
300
300
300
300
300
300
300
300
300
300
300
300
300
300
391.9893632
394.6151187
401.4591079
415.1347988
439.8307863
482.9513987
559.5022242
651.4440716
637.5193463
512.7622631
423.0162885
365.4079345
332.0524831
314.5103694
306.0843348
302.3696893
300.8597957
300.2914908
300.0926121
300.0276552
300.0077832
300.0020699
300.0005215
300.0001248
300.0000284
300.0000062
300.0000013
300.0000003
300
300
300
300
300
300
300
300
300
300
300
300
300
300
300
300
300
300
300
300
300
300
397.4077783
400.5232267
408.7525409
425.5187959
456.7747361
513.0849191
617.8668764
804.3693377
793.3885974
603.7926356
472.7554786
390.7543269
344.0773271
319.8192984
308.2669746
303.2065016
301.1595707
300.3920619
300.1242875
300.0370444
300.010409
300.0027645
300.0006957
300.0001662
300.0000378
300.0000082
300.0000017
300.0000003
300.0000001
300
300
300
300
300
300
300
300
300
300
300
300
300
300
300
300
300
300
300
300
300
402.4817876
406.1246235
415.8631849
436.0636931
474.7493539
547.1050759
683.0057042
972.1813573
970.5464801
704.928703
527.1117543
418.120336
356.944032
325.4614189
310.5745074
304.087588
301.4741812
300.4973327
300.1573715
300.0468335
300.0131425
300.0034865
300.0008765
300.0002093
300.0000476
300.0000103
300.0000021
300.0000004
300.0000001
300
300
300
300
300
300
300
300
300
300
300
300
300
300
300
300
300
300
300
300
300
406.8228844
410.9750109
422.1808215
445.7777918
491.8758945
580.6774152
750.5632461
1134.600384
1145.86651
803.1329825
579.1773701
444.074263
369.0576778
330.7441313
312.7259591
304.9063841
301.7657892
300.5947021
300.1879197
300.0558593
300.0156599
300.0041508
300.0010427
300.0002488
300.0000565
300.0000122
300.0000025
300.0000005
300.0000001
300
300
300
300
300
300
300
300
300
300
300
300
300
300
300
300
300
300
300
300
300
410.0246477
414.5950048
427.0165461
453.4926626
506.0649115
609.5170789
812.8017049
1265.486933
1288.764844
882.0261745
620.5735044
464.5556794
378.5647487
334.8731626
314.4023218
305.5428301
301.992022
300.6701264
300.2115532
300.0628348
300.0176037
300.0046634
300.0011709
300.0002793
300.0000634
300.0000137
300.0000028
300.0000006
300.0000001
300
300
300
300
300
300
300
300
300
300
300
300
300
300
300
300
300
300
300
300
300
411.7337347
416.5478651
429.6844406
457.8940114
514.5199449
627.242814
856.1967523
1340.015425
1369.58122
926.2053396
643.5980207
475.8930473
383.8091679
337.1450614
315.3229203
305.8918233
302.1159307
300.7113979
300.2244754
300.0666465
300.0186653
300.0049432
300.0012409
300.0002959
300.0000672
300.0000145
300.000003
300.0000006
300.0000001
300
300
300
300
300
300
300
300
300
300
300
300
300
300
300
300
300
300
300
300
300
411.7337323
416.5478629
429.6844387
457.8940102
514.5199445
627.2428141
856.1967472
1340.015419
1369.581214
926.205336
643.598019
475.8930465
383.8091676
337.1450612
315.3229202
305.8918233
302.1159307
300.7113979
300.2244754
300.0666465
300.0186653
300.0049432
300.0012409
300.0002959
300.0000672
300.0000145
300.000003
300.0000006
300.0000001
300
300
300
300
300
300
300
300
300
300
300
300
300
300
300
300
300
300
300
300
300
410.0246407
414.5949981
427.0165405
453.4926591
506.0649113
609.5170806
812.8017048
1265.48692
1288.764829
882.0261652
620.5735001
464.5556775
378.5647479
334.8731623
314.4023217
305.54283
301.992022
300.6701264
300.2115532
300.0628348
300.0176037
300.0046634
300.0011709
300.0002793
300.0000634
300.0000137
300.0000028
300.0000006
300.0000001
300
300
300
300
300
300
300
300
300
300
300
300
300
300
300
300
300
300
300
300
300
406.8228724
410.9749995
422.1808118
445.7777858
491.8758951
580.6774248
750.5632627
1134.600371
1145.866492
803.1329724
579.1773657
444.0742612
369.0576771
330.7441311
312.725959
304.906384
301.7657892
300.5947021
300.1879197
300.0558593
300.0156599
300.0041508
300.0010427
300.0002488
300.0000565
300.0000122
300.0000025
300.0000005
300.0000001
300
300
300
300
300
300
300
300
300
300
300
300
300
300
300
300
300
300
300
300
300
402.4817703
406.1246068
415.8631701
436.0636826
474.7493522
547.1050899
683.005734
972.1813539
970.5464717
704.9286988
527.1117528
418.1203355
356.9440318
325.4614189
310.5745074
304.087588
301.4741812
300.4973327
300.1573715
300.0468335
300.0131425
300.0034865
300.0008765
300.0002093
300.0000476
300.0000103
300.0000021
300.0000004
300.0000001
300
300
300
300
300
300
300
300
300
300
300
300
300
300
300
300
300
300
300
300
300
397.4077552
400.5232041
408.7525196
425.518778
456.7747258
513.084924
617.8669018
804.3693468
793.3886065
603.7926411
472.7554814
390.7543282
344.0773277
319.8192987
308.2669747
303.2065016
301.1595707
300.3920619
300.1242875
300.0370444
300.010409
300.0027645
300.0006957
300.0001662
300.0000378
300.0000082
300.0000017
300.0000003
300.0000001
300
300
300
300
300
300
300
300
300
300
300
300
300
300
300
300
300
300
300
300
300
391.9893343
394.6150899
401.4590793
415.134771
439.8307601
482.9513732
559.5021971
651.4440974
637.5193704
512.7622757
423.0162944
365.4079371
332.0524842
314.5103699
306.084335
302.3696894
300.8597957
300.2914908
300.0926121
300.0276552
300.0077832
300.0020699
300.0005215
300.0001248
300.0000284
300.0000062
300.0000013
300.0000003
300
300
300
300
300
300
300
300
300
300
300
300
300
300
300
300
300
300
300
300
300
300
386.5454693
388.7520184
394.4268797
405.5363263
425.0662421
458.8309051
512.1282438
527.4337787
515.1963373
439.3650292
382.1252183
344.2724606
321.9189361
310.0005277
304.2187592
301.6509716
300.6013311
300.2045072
300.0651455
300.0194961
300.0054972
300.0014643
300.0003694
300.0000885
300.0000202
300.0000044
300.0000009
300.0000002
300
300
300
300
300
300
300
300
300
300
300
300
300
300
300
300
300
300
300
300
300
300
381.3010131
383.1691598
387.9063124
396.9832575
412.6340099
438.4229084
466.7113028
437.0087604
428.3088921
385.5890938
351.497051
328.1849546
314.1128516
306.4948442
302.758372
301.0852437
300.3969852
300.1354896
300.0432873
300.0129868
300.0036696
300.0009793
300.0002475
300.0000594
300.0000135
300.0000029
300.0000006
300.0000001
300
300
300
300
300
300
300
300
300
300
300
300
300
300
300
300
300
300
300
300
300
300
376.3889572
377.9939046
382.0013435
389.5440951
402.2010308
420.5805094
426.9102821
377.2257969
371.8595217
349.4346857
330.4000792
316.9065405
308.567914
303.9796475
301.702462
300.6736985
300.2476013
300.0848332
300.0271911
300.0081801
300.0023168
300.0006195
300.0001568
300.0000377
300.0000086
300.0000019
300.0000004
300.0000001
300
300
300
300
300
300
300
300
300
300
300
300
300
300
300
300
300
300
300
300
300
300
371.8679341
373.2745815
376.7483042
383.196634
393.2866418
402.6634911
395.0549552
341.1554167
338.0265062
326.957924
316.9418942
309.5755407
304.912848
302.3038895
300.9930852
300.3953887
300.1460418
300.0502441
300.0161605
300.0048761
300.0013845
300.0003711
300.0000941
300.0000227
300.0000052
300.0000011
300.0000002
300
300
300
300
300
300
300
300
300
300
300
300
300
300
300
300
300
300
300
300
300
300
300
367.7428078
369.0053189
372.0832985
377.4349833
384.6657965
386.4319423
371.0423867
321.0653929
319.1592819
313.9467544
308.9430718
305.1334697
302.6658009
301.2621489
300.5482421
300.2196481
300.0815497
300.0281776
300.0090961
300.0027531
300.0007839
300.0002106
300.0000535
300.0000129
300.000003
300.0000006
300.0000001
300
300
300
300
300
300
300
300
300
300
300
300
300
300
300
300
300
300
300
300
300
300
300
363.9972206
365.1880739
367.993209
372.4939701
375.9779883
372.4109652
353.4702166
310.5684111
309.2795904
306.8857178
304.4890906
302.6123307
301.3718395
300.6554786
300.2868707
300.1156505
300.0431624
300.0149796
300.0048538
300.0014739
300.0004208
300.0001133
300.0000289
300.000007
300.0000016
300.0000004
300.0000001
300
300
300
300
300
300
300
300
300
300
300
300
300
300
300
300
300
300
300
300
300
300
300
360.5967759
361.7875561
364.3305005
367.334119
367.5431436
360.4681802
340.5944418
305.3242088
304.3738858
303.2684806
302.1530779
301.2660666
300.6711694
300.3233368
300.1425075
300.0577966
300.0216812
300.0075575
300.0024581
300.0007489
300.0002144
300.0000579
300.0000148
300.0000036
300.0000008
300.0000002
300
300
300
300
300
300
300
300
300
300
300
300
300
300
300
300
300
300
300
300
300
300
300
300
357.4629727
358.6099616
360.6499362
361.8522685
359.5017731
350.2872217
330.9718527
302.7677855
302.0402286
301.5069495
300.9929628
300.586804
300.3131001
300.151833
300.0673303
300.0274575
300.0103501
300.0036232
300.0011829
300.0003615
300.0001038
300.0000281
300.0000072
300.0000017
300.0000004
300.0000001
300
300
300
300
300
300
300
300
300
300
300
300
300
300
300
300
300
300
300
300
300
300
300
300
354.4855985
355.4993564
356.7071132
356.2681812
351.9892326
341.5719019
323.6759542
301.5294332
300.9650502
300.6853323
300.4444193
300.2615857
300.1397944
300.0680548
300.0303183
300.0124212
300.0047026
300.0016527
300.0005415
300.000166
300.0000478
300.000013
300.0000033
300.0000008
300.0000002
300
300
300
300
300
300
300
300
300
300
300
300
300
300
300
300
300
300
300
300
300
300
300
300
300
351.6259555
352.3574409
352.6664386
350.8494948
345.1736398
334.236412
318.3530656
300.9161244
300.4788276
300.3149117
300.1958803
300.1131327
300.0600591
300.0292198
300.0130447
300.0053614
300.0020369
300.0007183
300.0002361
300.0000726
300.000021
300.0000057
300.0000015
300.0000004
300.0000001
300
300
300
300
300
300
300
300
300
300
300
300
300
300
300
300
300
300
300
300
300
300
300
300
300
348.8252389
349.2087084
348.7000074
345.8042808
339.2146184
328.3751053
314.683413
300.6097372
300.2592132
300.1512926
300.0869956
300.0481314
300.0250344
300.0120798
300.0053814
300.0022136
300.0008428
300.000298
300.0000982
300.0000303
300.0000088
300.0000024
300.0000006
300.0000002
300
300
300
300
300
300
300
300
300
300
300
300
300
300
300
300
300
300
300
300
300
300
300
300
300
300
346.0264804
346.061652
344.8690441
341.1925361
334.1324786
323.8431033
312.1606775
300.4471389
300.1566972
300.0787916
300.0401806
300.0205768
300.0102569
300.0048466
300.0021393
300.0008772
300.0003339
300.0001182
300.000039
300.0000121
300.0000035
300.000001
300.0000002
300.0000001
300
300
300
300
300
300
300
300
300
300
300
300
300
300
300
300
300
300
300
300
300
300
300
300
300
300
343.1287598
342.8323091
341.0858688
336.8967197
329.7512578
320.2414535
310.2534644
300.3494963
300.1045152
300.0452619
300.019919
300.0090938
300.0042123
300.0019105
300.0008258
300.0003353
300.0001271
300.000045
300.0000149
300.0000046
300.0000013
300.0000004
300.0000001
300
300
300
300
300
300
300
300
300
300
300
300
300
300
300
300
300
300
300
300
300
300
300
300
300
300
300
339.9551426
339.3398844
337.141245
332.6441529
325.6535794
317.0770532
308.6803551
300.2813451
300.0739472
300.0282352
300.0107493
300.0042724
300.0017791
300.0007536
300.0003133
300.0001246
300.0000467
300.0000164
300.0000054
300.0000017
300.0000005
300.0000001
300
300
300
300
300
300
300
300
300
300
300
300
300
300
300
300
300
300
300
300
300
300
300
300
300
300
300
300
336.2455148
335.3202724
332.7498424
328.1025891
321.388629
314.194599
307.1737984
300.2247829
300.0531095
300.0184134
300.0062243
300.0021612
300.0007925
300.0003045
300.0001188
300.0000455
300.0000167
300.0000058
300.0000019
300.0000006
300.0000002
300
300
300
300
300
300
300
300
300
300
300
300
300
300
300
300
300
300
300
300
300
300
300
300
300
300
300
300
300
331.6311234
330.4069557
327.5496214
322.9243049
316.9197372
311.1465365
305.5860872
300.1711482
300.0372387
300.0120337
300.0037295
300.0011605
300.0003761
300.0001288
300.000046
300.0000166
300.0000059
300.000002
300.0000007
300.0000002
300.0000001
300
300
300
300
300
300
300
300
300
300
300
300
300
300
300
300
300
300
300
300
300
300
300
300
300
300
300
300
300
325.5747383
324.0812303
321.1306925
316.9442816
312.2622439
307.96995
303.9612959
300.1195611
300.0245075
300.0075291
300.0021979
300.0006328
300.0001859
300.0000571
300.0000184
300.0000061
300.0000021
300.0000007
300.0000002
300.0000001
300
300
300
300
300
300
300
300
300
300
300
300
300
300
300
300
300
300
300
300
300
300
300
300
300
300
300
300
300
300
317.3906043
315.8421027
313.3734855
310.4229877
307.4527341
304.7925804
302.3627158
300.0706038
300.0138999
300.0041241
300.0011582
300.0003177
300.0000874
300.0000247
300.0000073
300.0000022
300.0000007
300.0000002
300.0000001
300
300
300
300
300
300
300
300
300
300
300
300
300
300
300
300
300
300
300
300
300
300
300
300
300
300
300
300
300
300
300
306.6167513
305.7619156
304.7066272
303.59253
302.5428875
301.6182279
300.788568
300.0234107
300.0045112
300.0013133
300.0003616
300.0000969
300.0000258
300.000007
300.000002
300.0000006
300.0000002
300.0000001
300
300
300
300
300
300
300
300
300
300
300
300
300
300
300
300
300
300
300
300
300
300
300
300
300
300
300
300
300
300
300
300
)
;

boundaryField
{
    lowerWall
    {
        type            fixedValue;
        value           uniform 300;
    }
    atmosphere
    {
        type            zeroGradient;
    }
    rightWall
    {
        type            empty;
    }
    leftWall
    {
        type            empty;
    }
    frontAndBack
    {
        type            fixedValue;
        value           uniform 300;
    }
}


// ************************************************************************* //
