/*--------------------------------*- C++ -*----------------------------------*\
  =========                 |
  \\      /  F ield         | OpenFOAM: The Open Source CFD Toolbox
   \\    /   O peration     | Website:  https://openfoam.org
    \\  /    A nd           | Version:  6
     \\/     M anipulation  |
\*---------------------------------------------------------------------------*/
FoamFile
{
    version     2.0;
    format      ascii;
    class       volVectorField;
    location    "0.06";
    object      U;
}
// * * * * * * * * * * * * * * * * * * * * * * * * * * * * * * * * * * * * * //

dimensions      [0 1 -1 0 0 0 0];

internalField   nonuniform List<vector> 
2500
(
(0 -0.9297819243 -0.1775409773)
(0 -0.3407746127 -0.1030890971)
(0 -0.2650587259 -0.07725980011)
(0 -0.1032854365 -0.05090659565)
(0 -0.04427897585 -0.02924781764)
(0 -0.003697148889 -0.01354918979)
(0 0.01126105874 0.0006516249825)
(0 -0.0002200741747 0.0006356237129)
(0 -2.075535747e-14 6.557282105e-18)
(0 -4.128078265e-14 -1.717475584e-16)
(0 -4.071583174e-14 -3.424212761e-16)
(0 -3.987279948e-14 -5.006540014e-16)
(0 -3.873017106e-14 -6.41853477e-16)
(0 -3.732565454e-14 -7.625416994e-16)
(0 -3.570245035e-14 -8.605529944e-16)
(0 -3.390676993e-14 -9.350420754e-16)
(0 -3.198531679e-14 -9.863604706e-16)
(0 -2.998310178e-14 -1.015847026e-15)
(0 -2.794172061e-14 -1.025575408e-15)
(0 -2.589814304e-14 -1.018095383e-15)
(0 -2.388399853e-14 -9.96195259e-16)
(0 -2.192529897e-14 -9.627025027e-16)
(0 -2.004251438e-14 -9.203301731e-16)
(0 -1.825090953e-14 -8.715695437e-16)
(0 -1.656105359e-14 -8.186244462e-16)
(0 -1.497942631e-14 -7.633802422e-16)
(0 -1.350905961e-14 -7.073994313e-16)
(0 -1.21501689e-14 -6.519361894e-16)
(0 -1.090074311e-14 -5.979631089e-16)
(0 -9.757074376e-15 -5.462046868e-16)
(0 -8.714218189e-15 -4.971734343e-16)
(0 -7.766381509e-15 -4.512056839e-16)
(0 -6.907241514e-15 -4.084951861e-16)
(0 -6.130200453e-15 -3.691233834e-16)
(0 -5.428583794e-15 -3.330858436e-16)
(0 -4.795789448e-15 -3.003147451e-16)
(0 -4.225395812e-15 -2.706975818e-16)
(0 -3.711235853e-15 -2.440924135e-16)
(0 -3.247443748e-15 -2.203400708e-16)
(0 -2.828479722e-15 -1.99273747e-16)
(0 -2.449137905e-15 -1.807264049e-16)
(0 -2.104541158e-15 -1.645363914e-16)
(0 -1.790126117e-15 -1.505516148e-16)
(0 -1.501621007e-15 -1.386325985e-16)
(0 -1.235018197e-15 -1.286546929e-16)
(0 -9.865428813e-16 -1.205097333e-16)
(0 -7.526185974e-16 -1.141075606e-16)
(0 -5.298288485e-16 -1.093784118e-16)
(0 -3.148697473e-16 -1.062796001e-16)
(0 -1.044701122e-16 -1.048208775e-16)
(0 -0.9545300411 -0.5746424234)
(0 -0.362225958 -0.3636066868)
(0 -0.2115057055 -0.2241645309)
(0 -0.03580228831 -0.1298799986)
(0 -0.008483823305 -0.06905267113)
(0 0.009059020522 -0.03436477199)
(0 0.01351027796 0.005170592745)
(0 -0.0002251148439 0.004137038738)
(0 -2.093727489e-14 2.638484882e-17)
(0 -4.162866462e-14 -5.225405043e-16)
(0 -4.104473818e-14 -1.039738684e-15)
(0 -4.017223168e-14 -1.519038517e-15)
(0 -3.899205876e-14 -1.946124455e-15)
(0 -3.754435406e-14 -2.310365197e-15)
(0 -3.587495073e-14 -2.605255331e-15)
(0 -3.40325774e-14 -2.828382307e-15)
(0 -3.206612174e-14 -2.981009968e-15)
(0 -3.002231672e-14 -3.06740715e-15)
(0 -2.794396897e-14 -3.094053418e-15)
(0 -2.586876289e-14 -3.068835528e-15)
(0 -2.382860565e-14 -3.000317735e-15)
(0 -2.184943388e-14 -2.89713599e-15)
(0 -1.995138142e-14 -2.767536858e-15)
(0 -1.81492038e-14 -2.619059837e-15)
(0 -1.645286429e-14 -2.45834748e-15)
(0 -1.48682013e-14 -2.291060291e-15)
(0 -1.339761556e-14 -2.121871252e-15)
(0 -1.204073258e-14 -1.954516171e-15)
(0 -1.07950116e-14 -1.791879347e-15)
(0 -9.656284701e-15 -1.636098169e-15)
(0 -8.619219186e-15 -1.488674367e-15)
(0 -7.677703261e-15 -1.350583338e-15)
(0 -6.825159214e-15 -1.222376059e-15)
(0 -6.054791111e-15 -1.104270418e-15)
(0 -5.359775155e-15 -9.962306275e-16)
(0 -4.733401186e-15 -8.980345123e-16)
(0 -4.16917348e-15 -8.09329298e-16)
(0 -3.660878342e-15 -7.296769546e-16)
(0 -3.202625081e-15 -6.585903757e-16)
(0 -2.788866056e-15 -5.955617313e-16)
(0 -2.41440055e-15 -5.400842915e-16)
(0 -2.074366368e-15 -4.916689162e-16)
(0 -1.764222324e-15 -4.498562745e-16)
(0 -1.479724085e-15 -4.142257226e-16)
(0 -1.216895332e-15 -3.84401652e-16)
(0 -9.71995749e-16 -3.600580434e-16)
(0 -7.414872759e-16 -3.409220155e-16)
(0 -5.22000888e-16 -3.267775368e-16)
(0 -3.103122131e-16 -3.174717816e-16)
(0 -1.030113896e-16 -3.129312626e-16)
(0 -0.9276934876 -0.8855569155)
(0 -0.5365629069 -0.7304351497)
(0 -0.2390602239 -0.4685293047)
(0 0.00130643262 -0.2246721723)
(0 0.06021279631 -0.07074533586)
(0 0.03164133378 -0.0307152463)
(0 0.01361272293 0.0183053062)
(0 -0.0002543819857 0.00760506483)
(0 -2.129784879e-14 4.508449896e-17)
(0 -4.233631471e-14 -8.942212378e-16)
(0 -4.171232975e-14 -1.774975036e-15)
(0 -4.077918525e-14 -2.589655423e-15)
(0 -3.952149774e-14 -3.313264165e-15)
(0 -3.798478542e-14 -3.927570321e-15)
(0 -3.622046746e-14 -4.421761198e-15)
(0 -3.428252456e-14 -4.792272761e-15)
(0 -3.222434164e-14 -5.041951893e-15)
(0 -3.009614523e-14 -5.178791097e-15)
(0 -2.794314899e-14 -5.21447895e-15)
(0 -2.580440735e-14 -5.162968633e-15)
(0 -2.371229899e-14 -5.039206031e-15)
(0 -2.169251809e-14 -4.858096662e-15)
(0 -1.976443822e-14 -4.633738342e-15)
(0 -1.794172015e-14 -4.378908782e-15)
(0 -1.623305404e-14 -4.104774474e-15)
(0 -1.464295008e-14 -3.820776652e-15)
(0 -1.317251549e-14 -3.534648529e-15)
(0 -1.1820177e-14 -3.25252195e-15)
(0 -1.058232511e-14 -2.979088383e-15)
(0 -9.453869396e-15 -2.717786894e-15)
(0 -8.428703358e-15 -2.470999121e-15)
(0 -7.500083201e-15 -2.240237639e-15)
(0 -6.660928593e-15 -2.026319305e-15)
(0 -5.904055022e-15 -1.829519051e-15)
(0 -5.222347888e-15 -1.649702434e-15)
(0 -4.608888118e-15 -1.486437129e-15)
(0 -4.057038254e-15 -1.339084742e-15)
(0 -3.560496931e-15 -1.206874964e-15)
(0 -3.113328524e-15 -1.088964391e-15)
(0 -2.709973638e-15 -9.844823383e-16)
(0 -2.34524509e-15 -8.925658876e-16)
(0 -2.014313141e-15 -8.123861869e-16)
(0 -1.712682923e-15 -7.431677824e-16)
(0 -1.436166385e-15 -6.84202512e-16)
(0 -1.180850518e-15 -6.348592493e-16)
(0 -9.430632448e-16 -5.945905652e-16)
(0 -7.193380909e-16 -5.629371326e-16)
(0 -5.063786146e-16 -5.395302578e-16)
(0 -3.010234731e-16 -5.240914279e-16)
(0 -9.992959316e-17 -5.164212424e-16)
(0 -0.7700093644 -1.006560358)
(0 -0.6577185538 -1.035917609)
(0 -0.3552893629 -0.7922559637)
(0 -0.09081839856 -0.4308889317)
(0 0.1012014267 -0.08452822145)
(0 0.0654313403 0.007536337539)
(0 0.01179410909 0.04575226112)
(0 -0.0002852405767 0.01081230305)
(0 -2.185434719e-14 6.042164408e-17)
(0 -4.342878548e-14 -1.301706709e-15)
(0 -4.274017237e-14 -2.576263187e-15)
(0 -4.171052081e-14 -3.751297181e-15)
(0 -4.032997365e-14 -4.789652843e-15)
(0 -3.865285109e-14 -5.664834538e-15)
(0 -3.673965317e-14 -6.361891019e-15)
(0 -3.46527681e-14 -6.876943293e-15)
(0 -3.245264008e-14 -7.21568537e-15)
(0 -3.019484378e-14 -7.391281957e-15)
(0 -2.79281465e-14 -7.422061412e-15)
(0 -2.569348997e-14 -7.329314851e-15)
(0 -2.352373368e-14 -7.135402727e-15)
(0 -2.144396619e-14 -6.862267524e-15)
(0 -1.947219354e-14 -6.530370877e-15)
(0 -1.762023993e-14 -6.158020057e-15)
(0 -1.589473216e-14 -5.761019761e-15)
(0 -1.429807535e-14 -5.352574927e-15)
(0 -1.282936086e-14 -4.943372532e-15)
(0 -1.148517244e-14 -4.541779602e-15)
(0 -1.026027655e-14 -4.1541069e-15)
(0 -9.148195439e-15 -3.784900272e-15)
(0 -8.141669931e-15 -3.437232937e-15)
(0 -7.233023445e-15 -3.112981332e-15)
(0 -6.414440626e-15 -2.813074412e-15)
(0 -5.67817424e-15 -2.537711601e-15)
(0 -5.016693234e-15 -2.286548304e-15)
(0 -4.422783494e-15 -2.058850225e-15)
(0 -3.889611315e-15 -1.853619182e-15)
(0 -3.410757992e-15 -1.669693763e-15)
(0 -2.980232456e-15 -1.505828439e-15)
(0 -2.592467553e-15 -1.360754614e-15)
(0 -2.242304399e-15 -1.233226873e-15)
(0 -1.924968263e-15 -1.122057313e-15)
(0 -1.636038649e-15 -1.026140458e-15)
(0 -1.371415552e-15 -9.444708766e-16)
(0 -1.127283385e-15 -8.761552598e-16)
(0 -9.000736323e-16 -8.204203599e-16)
(0 -6.864269684e-16 -7.766178725e-16)
(0 -4.831551832e-16 -7.442269206e-16)
(0 -2.872031977e-16 -7.228543223e-16)
(0 -9.534120421e-17 -7.122329004e-16)
(0 -0.5452678279 -0.967275423)
(0 -0.6490628946 -1.18037796)
(0 -0.442976627 -1.061196343)
(0 -0.2162266035 -0.6874399326)
(0 0.04238578907 -0.1890464576)
(0 0.08894662559 0.0436373039)
(0 0.007673052457 0.08790872446)
(0 -0.0003241041147 0.01311865916)
(0 -2.262507266e-14 6.952835187e-17)
(0 -4.494447275e-14 -1.763376579e-15)
(0 -4.416192022e-14 -3.477052321e-15)
(0 -4.299257491e-14 -5.049562917e-15)
(0 -4.14350351e-14 -6.429156346e-15)
(0 -3.955702359e-14 -7.58016687e-15)
(0 -3.743257622e-14 -8.483975124e-15)
(0 -3.513631891e-14 -9.137884292e-15)
(0 -3.27386803e-14 -9.552535831e-15)
(0 -3.030252127e-14 -9.748572144e-15)
(0 -2.788118188e-14 -9.753161258e-15)
(0 -2.551774867e-14 -9.596825147e-15)
(0 -2.324525166e-14 -9.310826054e-15)
(0 -2.108748624e-14 -8.925206478e-15)
(0 -1.906019076e-14 -8.467465713e-15)
(0 -1.717236903e-14 -7.961789167e-15)
(0 -1.542760891e-14 -7.42871729e-15)
(0 -1.382530286e-14 -6.885137238e-15)
(0 -1.236172017e-14 -6.344491994e-15)
(0 -1.103091137e-14 -5.817120271e-15)
(0 -9.825445776e-15 -5.310660911e-15)
(0 -8.736995433e-15 -4.830474341e-15)
(0 -7.756784419e-15 -4.380049563e-15)
(0 -6.875924676e-15 -3.961377604e-15)
(0 -6.085658862e-15 -3.575281565e-15)
(0 -5.377528914e-15 -3.221699853e-15)
(0 -4.743486513e-15 -2.899923383e-15)
(0 -4.175958997e-15 -2.608790063e-15)
(0 -3.667881792e-15 -2.346841239e-15)
(0 -3.212706189e-15 -2.112445276e-15)
(0 -2.804389375e-15 -1.903893448e-15)
(0 -2.437372072e-15 -1.719472985e-15)
(0 -2.106547789e-15 -1.557521635e-15)
(0 -1.807226726e-15 -1.416467516e-15)
(0 -1.535096487e-15 -1.294857502e-15)
(0 -1.286181187e-15 -1.191376814e-15)
(0 -1.056800001e-15 -1.104862007e-15)
(0 -8.435258574e-16 -1.034309132e-15)
(0 -6.431446516e-16 -9.788784215e-16)
(0 -4.526150644e-16 -9.378965454e-16)
(0 -2.690294529e-16 -9.108572959e-16)
(0 -8.930817134e-17 -8.974218474e-16)
(0 -0.3624813252 -0.8369581632)
(0 -0.5902752945 -1.191578542)
(0 -0.4916700692 -1.233969921)
(0 -0.3192441653 -0.9201348421)
(0 -0.07876066128 -0.37455004)
(0 0.07509222545 0.04015490096)
(0 -0.002050114102 0.1277107666)
(0 -0.0002579659035 0.01306561665)
(0 -2.363981411e-14 6.674337655e-17)
(0 -4.694067346e-14 -2.301794831e-15)
(0 -4.60263587e-14 -4.518960131e-15)
(0 -4.466262484e-14 -6.540665471e-15)
(0 -4.286057761e-14 -8.297157542e-15)
(0 -4.070766987e-14 -9.742621846e-15)
(0 -3.829737059e-14 -1.085589157e-14)
(0 -3.572132881e-14 -1.163803281e-14)
(0 -3.306332793e-14 -1.210796875e-14)
(0 -3.03954692e-14 -1.229729258e-14)
(0 -2.777639951e-14 -1.224518242e-14)
(0 -2.525115476e-14 -1.199400429e-14)
(0 -2.285211501e-14 -1.158588232e-14)
(0 -2.060060585e-14 -1.106028292e-14)
(0 -1.850877623e-14 -1.045251427e-14)
(0 -1.658149151e-14 -9.792971573e-15)
(0 -1.481808023e-14 -9.106939895e-15)
(0 -1.321385006e-14 -8.41477993e-15)
(0 -1.176134389e-14 -7.732351088e-15)
(0 -1.045134135e-14 -7.07155961e-15)
(0 -9.273630618e-15 -6.440951114e-15)
(0 -8.217584092e-15 -5.846293716e-15)
(0 -7.272573195e-15 -5.291118807e-15)
(0 -6.428255447e-15 -4.777201963e-15)
(0 -5.674762875e-15 -4.304977197e-15)
(0 -5.002816058e-15 -3.873884684e-15)
(0 -4.403783444e-15 -3.482656338e-15)
(0 -3.86970135e-15 -3.1295458e-15)
(0 -3.393266528e-15 -2.81251034e-15)
(0 -2.9678102e-15 -2.529352182e-15)
(0 -2.587260165e-15 -2.277826335e-15)
(0 -2.24609574e-15 -2.055721279e-15)
(0 -1.939298929e-15 -1.860918047e-15)
(0 -1.66230413e-15 -1.691432387e-15)
(0 -1.410947947e-15 -1.545443922e-15)
(0 -1.181420057e-15 -1.421315518e-15)
(0 -9.702157034e-16 -1.317605437e-15)
(0 -7.740900469e-16 -1.233074334e-15)
(0 -5.900143816e-16 -1.166688713e-15)
(0 -4.151340576e-16 -1.117622108e-15)
(0 -2.467284997e-16 -1.085255012e-15)
(0 -8.190575572e-17 -1.069174525e-15)
(0 -0.2642654665 -0.6673190986)
(0 -0.5485431432 -1.115377434)
(0 -0.5502919818 -1.322185755)
(0 -0.428606285 -1.116435505)
(0 -0.193318401 -0.5674968472)
(0 0.0172939807 -0.009261450381)
(0 -0.01351633548 0.1464086302)
(0 -0.0001073163718 0.009165632983)
(0 -2.494203173e-14 4.306654709e-17)
(0 -4.949588095e-14 -2.94670988e-15)
(0 -4.840079086e-14 -5.756234712e-15)
(0 -4.677077232e-14 -8.296861831e-15)
(0 -4.463699147e-14 -1.047606348e-14)
(0 -4.211575762e-14 -1.223716042e-14)
(0 -3.932798718e-14 -1.355884734e-14)
(0 -3.63883961e-14 -1.44503234e-14)
(0 -3.339794007e-14 -1.494397593e-14)
(0 -3.043973495e-14 -1.508743114e-14)
(0 -2.757789359e-14 -1.493627282e-14)
(0 -2.485844858e-14 -1.454814062e-14)
(0 -2.23115303e-14 -1.39784369e-14)
(0 -1.995411818e-14 -1.327755325e-14)
(0 -1.779287941e-14 -1.248936249e-14)
(0 -1.582679466e-14 -1.165066768e-14)
(0 -1.404941727e-14 -1.07913134e-14)
(0 -1.245071405e-14 -9.934711378e-15)
(0 -1.101849985e-14 -9.098589741e-15)
(0 -9.739511392e-15 -8.295829979e-15)
(0 -8.600179883e-15 -7.535301532e-15)
(0 -7.587163126e-15 -6.822639518e-15)
(0 -6.687692665e-15 -6.16093683e-15)
(0 -5.889783066e-15 -5.551339353e-15)
(0 -5.182341584e-15 -4.993544258e-15)
(0 -4.555208056e-15 -4.486207885e-15)
(0 -3.999147628e-15 -4.027273112e-15)
(0 -3.505812999e-15 -3.614227379e-15)
(0 -3.067688174e-15 -3.24430252e-15)
(0 -2.678022183e-15 -2.914626755e-15)
(0 -2.330758472e-15 -2.622338111e-15)
(0 -2.020463784e-15 -2.364667218e-15)
(0 -1.742258897e-15 -2.138996211e-15)
(0 -1.4917526e-15 -1.942899286e-15)
(0 -1.264979618e-15 -1.774169439e-15)
(0 -1.058342702e-15 -1.63083502e-15)
(0 -8.685588162e-16 -1.511168988e-15)
(0 -6.92609133e-16 -1.413693138e-15)
(0 -5.276924256e-16 -1.337179068e-15)
(0 -3.711813632e-16 -1.280647235e-15)
(0 -2.205818703e-16 -1.243365187e-15)
(0 -7.322768479e-17 -1.22484577e-15)
(0 -0.2276426039 -0.4856041161)
(0 -0.5299659551 -0.9788015785)
(0 -0.6280576317 -1.338337719)
(0 -0.5632067198 -1.28157383)
(0 -0.3234837936 -0.7766086296)
(0 -0.07000338621 -0.1362181537)
(0 -0.01904857346 0.1329096771)
(0 -2.088047935e-05 0.001840141725)
(0 -2.659144776e-14 1.347539837e-18)
(0 -5.271741756e-14 -3.737504442e-15)
(0 -5.137651066e-14 -7.262258366e-15)
(0 -4.93824536e-14 -1.041430477e-14)
(0 -4.68008762e-14 -1.307289754e-14)
(0 -4.379045373e-14 -1.517095675e-14)
(0 -4.051053357e-14 -1.669189819e-14)
(0 -3.71064574e-14 -1.766036146e-14)
(0 -3.370043567e-14 -1.813014072e-14)
(0 -3.03877661e-14 -1.817217301e-14)
(0 -2.723710899e-14 -1.786434836e-14)
(0 -2.429331884e-14 -1.72838736e-14)
(0 -2.158152764e-14 -1.650220407e-14)
(0 -1.911153145e-14 -1.558216615e-14)
(0 -1.688189065e-14 -1.457674968e-14)
(0 -1.488344242e-14 -1.352905554e-14)
(0 -1.310212393e-14 -1.247296321e-14)
(0 -1.15211264e-14 -1.143418682e-14)
(0 -1.012246249e-14 -1.043148674e-14)
(0 -8.888053143e-15 -9.477885371e-15)
(0 -7.800440157e-15 -8.581798402e-15)
(0 -6.84321939e-15 -7.748035909e-15)
(0 -6.00127303e-15 -6.97865707e-15)
(0 -5.260862875e-15 -6.273679754e-15)
(0 -4.609631407e-15 -5.631656358e-15)
(0 -4.036544911e-15 -5.050131959e-15)
(0 -3.531802938e-15 -4.526002319e-15)
(0 -3.086730758e-15 -4.055788803e-15)
(0 -2.693665904e-15 -3.635845757e-15)
(0 -2.345845792e-15 -3.262513946e-15)
(0 -2.037300628e-15 -2.93223158e-15)
(0 -1.762753839e-15 -2.641612512e-15)
(0 -1.517530996e-15 -2.387499397e-15)
(0 -1.297477359e-15 -2.166998127e-15)
(0 -1.098883682e-15 -1.977498502e-15)
(0 -9.18419605e-16 -1.816685084e-15)
(0 -7.53073821e-16 -1.682541295e-15)
(0 -6.00100127e-16 -1.573349103e-15)
(0 -4.56968479e-16 -1.487686129e-15)
(0 -3.213201771e-16 -1.424421528e-15)
(0 -1.909270346e-16 -1.382711684e-15)
(0 -6.338633878e-17 -1.361996473e-15)
(0 -0.2007169873 -0.3081232491)
(0 -0.4983073742 -0.7905934034)
(0 -0.6896390505 -1.281672626)
(0 -0.7045617667 -1.413770328)
(0 -0.4815137106 -1.02423751)
(0 -0.1576785205 -0.3353542351)
(0 -0.01874565345 0.07977267354)
(0 -4.288904412e-05 -0.007022108921)
(0 -2.867535504e-14 -4.794176753e-17)
(0 -5.675971917e-14 -4.731525013e-15)
(0 -5.507759119e-14 -9.140767368e-15)
(0 -5.25814115e-14 -1.302493353e-14)
(0 -4.939364345e-14 -1.62300131e-14)
(0 -4.573475826e-14 -1.868166499e-14)
(0 -4.18173919e-14 -2.03772816e-14)
(0 -3.782663863e-14 -2.136899791e-14)
(0 -3.390975162e-14 -2.174401775e-14)
(0 -3.017394259e-14 -2.160677529e-14)
(0 -2.668959418e-14 -2.106510278e-14)
(0 -2.349630429e-14 -2.022084455e-14)
(0 -2.060982284e-14 -1.91643889e-14)
(0 -1.802866379e-14 -1.797220711e-14)
(0 -1.573976881e-14 -1.670646076e-14)
(0 -1.372300819e-14 -1.541588255e-14)
(0 -1.195454855e-14 -1.413733196e-14)
(0 -1.040923758e-14 -1.28976148e-14)
(0 -9.062198397e-15 -1.17153082e-14)
(0 -7.889823057e-15 -1.060244456e-14)
(0 -6.87033042e-15 -9.565984721e-15)
(0 -5.984021794e-15 -8.609059031e-15)
(0 -5.21333651e-15 -7.731983299e-15)
(0 -4.542782354e-15 -6.933071461e-15)
(0 -3.958793788e-15 -6.209272899e-15)
(0 -3.449554016e-15 -5.55666334e-15)
(0 -3.004804472e-15 -4.970816434e-15)
(0 -2.615656436e-15 -4.447080023e-15)
(0 -2.274413317e-15 -3.980777471e-15)
(0 -1.974408007e-15 -3.567351012e-15)
(0 -1.709857038e-15 -3.20246081e-15)
(0 -1.475731601e-15 -2.882050736e-15)
(0 -1.267644513e-15 -2.602389519e-15)
(0 -1.081751705e-15 -2.360094049e-15)
(0 -9.146665754e-16 -2.152140059e-15)
(0 -7.633854951e-16 -1.975864222e-15)
(0 -6.252228346e-16 -1.828960718e-15)
(0 -4.977539672e-16 -1.70947458e-15)
(0 -3.787648505e-16 -1.615793566e-15)
(0 -2.66206918e-16 -1.546639827e-15)
(0 -1.581568153e-16 -1.501062323e-15)
(0 -5.25124737e-17 -1.478430657e-15)
(0 -0.1388298977 -0.1516295085)
(0 -0.4051111161 -0.5554961258)
(0 -0.6771198514 -1.138756459)
(0 -0.801767075 -1.485076009)
(0 -0.6501927901 -1.295797112)
(0 -0.2815867694 -0.6215202655)
(0 -0.01127992733 -0.008396704582)
(0 -3.656306321e-05 -0.01369715431)
(0 -3.132123657e-14 -9.504846653e-17)
(0 -6.184065986e-14 -6.022110907e-15)
(0 -5.966991917e-14 -1.154400346e-14)
(0 -5.647169934e-14 -1.631425126e-14)
(0 -5.245760767e-14 -2.014019822e-14)
(0 -4.793772223e-14 -2.294813513e-14)
(0 -4.319786649e-14 -2.476639012e-14)
(0 -3.847319354e-14 -2.569424471e-14)
(0 -3.393821304e-14 -2.587014006e-14)
(0 -2.970885113e-14 -2.544583752e-14)
(0 -2.585117825e-14 -2.456850021e-14)
(0 -2.239260496e-14 -2.33700825e-14)
(0 -1.93328902e-14 -2.196237146e-14)
(0 -1.665360331e-14 -2.043587983e-14)
(0 -1.43255661e-14 -1.886106315e-14)
(0 -1.231431362e-14 -1.729073233e-14)
(0 -1.058385617e-14 -1.576290855e-14)
(0 -9.099102642e-15 -1.430366509e-14)
(0 -7.827292253e-15 -1.292971223e-14)
(0 -6.738729661e-15 -1.165061926e-14)
(0 -5.807054627e-15 -1.047065113e-14)
(0 -5.009217967e-15 -9.39024238e-15)
(0 -4.325285459e-15 -8.407152636e-15)
(0 -3.738152476e-15 -7.517354441e-15)
(0 -3.233223286e-15 -6.715703136e-15)
(0 -2.798088446e-15 -5.996433385e-15)
(0 -2.422219621e-15 -5.353520371e-15)
(0 -2.096691795e-15 -4.780936981e-15)
(0 -1.813936894e-15 -4.272832198e-15)
(0 -1.567529131e-15 -3.823650599e-15)
(0 -1.352000351e-15 -3.428208483e-15)
(0 -1.162682548e-15 -3.081738557e-15)
(0 -9.955743098e-16 -2.779912296e-15)
(0 -8.472278988e-16 -2.51884688e-15)
(0 -7.146538545e-16 -2.295101868e-15)
(0 -5.952402636e-16 -2.105669463e-15)
(0 -4.86684179e-16 -1.947961248e-15)
(0 -3.869329756e-16 -1.819793447e-15)
(0 -2.941337257e-16 -1.719372278e-15)
(0 -2.065889339e-16 -1.645280467e-15)
(0 -1.227178649e-16 -1.596465722e-15)
(0 -4.07546728e-17 -1.572231693e-15)
(0 -0.03362941195 -0.02254867981)
(0 -0.2262455026 -0.2911656171)
(0 -0.5431999402 -0.8964861365)
(0 -0.7940174013 -1.447509613)
(0 -0.7812335975 -1.537146473)
(0 -0.4406871953 -0.9938258486)
(0 -0.0110034338 -0.1784742976)
(0 0.0008696983469 -0.01145217922)
(0 -3.469000529e-14 -2.171510988e-16)
(0 -6.826942014e-14 -7.768284796e-15)
(0 -6.536973154e-14 -1.469829291e-14)
(0 -6.117760626e-14 -2.054727622e-14)
(0 -5.602752732e-14 -2.506788395e-14)
(0 -5.036095016e-14 -2.820393275e-14)
(0 -4.456350148e-14 -3.004570327e-14)
(0 -3.893038856e-14 -3.077138407e-14)
(0 -3.366134442e-14 -3.059648311e-14)
(0 -2.887230274e-14 -2.973801044e-14)
(0 -2.461383916e-14 -2.83930788e-14)
(0 -2.089017555e-14 -2.672872011e-14)
(0 -1.767562017e-14 -2.487923492e-14)
(0 -1.492735548e-14 -2.294796588e-14)
(0 -1.259462131e-14 -2.101125371e-14)
(0 -1.062485358e-14 -1.912313492e-14)
(0 -8.967481304e-15 -1.731995175e-14)
(0 -7.576041258e-15 -1.562446062e-14)
(0 -6.409152573e-15 -1.404928302e-14)
(0 -5.430761964e-15 -1.259968844e-14)
(0 -4.609953537e-15 -1.12757717e-14)
(0 -3.920523299e-15 -1.007411582e-14)
(0 -3.340448572e-15 -8.989036182e-15)
(0 -2.851332854e-15 -8.013493813e-15)
(0 -2.437872731e-15 -7.139753294e-15)
(0 -2.087371251e-15 -6.359846886e-15)
(0 -1.789308069e-15 -5.665893986e-15)
(0 -1.534968263e-15 -5.050314041e-15)
(0 -1.317126935e-15 -4.505962068e-15)
(0 -1.129784293e-15 -4.026208808e-15)
(0 -9.679449958e-16 -3.604981962e-15)
(0 -8.274354131e-16 -3.23678067e-15)
(0 -7.047528363e-16 -2.916672201e-15)
(0 -5.969412771e-16 -2.640277332e-15)
(0 -5.014891584e-16 -2.403749155e-15)
(0 -4.162448752e-16 -2.203748676e-15)
(0 -3.39346818e-16 -2.037419594e-15)
(0 -2.691649973e-16 -1.902363978e-15)
(0 -2.042518708e-16 -1.796619983e-15)
(0 -1.43300362e-16 -1.718642437e-15)
(0 -8.510804154e-17 -1.667286829e-15)
(0 -2.827844525e-17 -1.641797052e-15)
(0 0.07822746055 0.03914178228)
(0 0.002629299358 -0.04422812295)
(0 -0.2904038348 -0.5655378128)
(0 -0.6459530649 -1.255764618)
(0 -0.8182218971 -1.658525389)
(0 -0.6000896671 -1.377457989)
(0 -0.09990411343 -0.5002647535)
(0 0.00366909653 -0.01336647016)
(0 -3.89105935e-14 -7.107530235e-16)
(0 -7.640226996e-14 -1.018014757e-14)
(0 -7.24489106e-14 -1.893244611e-14)
(0 -6.684129038e-14 -2.61077226e-14)
(0 -6.011426419e-14 -3.137939721e-14)
(0 -5.291554154e-14 -3.475356922e-14)
(0 -4.576531782e-14 -3.644091932e-14)
(0 -3.902397338e-14 -3.674909738e-14)
(0 -3.290483941e-14 -3.600649706e-14)
(0 -2.750544683e-14 -3.451679251e-14)
(0 -2.284188792e-14 -3.253724797e-14)
(0 -1.887876108e-14 -3.027263896e-14)
(0 -1.555213597e-14 -2.787801724e-14)
(0 -1.27856221e-14 -2.546560662e-14)
(0 -1.050073514e-14 -2.311293945e-14)
(0 -8.623011653e-15 -2.087066992e-14)
(0 -7.085181871e-15 -1.87693537e-14)
(0 -5.828433913e-15 -1.682497951e-14)
(0 -4.802520078e-15 -1.50432968e-14)
(0 -3.965218344e-15 -1.342309749e-14)
(0 -3.28148201e-15 -1.19586429e-14)
(0 -2.722482449e-15 -1.064141997e-14)
(0 -2.264663449e-15 -9.461386103e-15)
(0 -1.888869588e-15 -8.407832665e-15)
(0 -1.579576359e-15 -7.46996908e-15)
(0 -1.324229138e-15 -6.637305552e-15)
(0 -1.112686775e-15 -5.899892644e-15)
(0 -9.367598768e-16 -5.248460727e-15)
(0 -7.898316614e-16 -4.674490617e-15)
(0 -6.665490248e-16 -4.170237927e-15)
(0 -5.625722132e-16 -3.728727223e-15)
(0 -4.743727877e-16 -3.343727374e-15)
(0 -3.990709711e-16 -3.009716024e-15)
(0 -3.343048531e-16 -2.721838729e-15)
(0 -2.781251984e-16 -2.47586651e-15)
(0 -2.289107022e-16 -2.268154374e-15)
(0 -1.852994812e-16 -2.095602469e-15)
(0 -1.461333646e-16 -1.955620977e-15)
(0 -1.104121851e-16 -1.846099407e-15)
(0 -7.725577951e-17 -1.765380698e-15)
(0 -4.587247992e-17 -1.712240371e-15)
(0 -1.526489648e-17 -1.685870836e-15)
(0 0.1657745395 0.04225628432)
(0 0.1784415912 0.08262969818)
(0 0.00700974228 -0.2106375784)
(0 -0.3776084803 -0.9056746714)
(0 -0.7337950741 -1.586889157)
(0 -0.7290868537 -1.675654007)
(0 -0.2822877467 -0.9208503338)
(0 0.006443684192 -0.06156427167)
(0 -4.406939205e-14 -5.821536397e-16)
(0 -8.66383528e-14 -1.336159365e-14)
(0 -8.129730658e-14 -2.47408328e-14)
(0 -7.362455736e-14 -3.357010734e-14)
(0 -6.467337394e-14 -3.958739037e-14)
(0 -5.542247227e-14 -4.298954229e-14)
(0 -4.655902964e-14 -4.421520299e-14)
(0 -3.849596631e-14 -4.377771199e-14)
(0 -3.142903956e-14 -4.216384679e-14)
(0 -2.540305364e-14 -3.978567668e-14)
(0 -2.036968561e-14 -3.696673002e-14)
(0 -1.623094482e-14 -3.394678457e-14)
(0 -1.286858784e-14 -3.089476193e-14)
(0 -1.016227768e-14 -2.792363836e-14)
(0 -7.999684602e-15 -2.510432811e-14)
(0 -6.281267837e-15 -2.247732455e-14)
(0 -4.921790891e-15 -2.006186494e-14)
(0 -3.849984362e-15 -1.786284183e-14)
(0 -3.007270561e-15 -1.587584999e-14)
(0 -2.346108061e-15 -1.409077585e-14)
(0 -1.828276009e-15 -1.249429024e-14)
(0 -1.423266502e-15 -1.107153852e-14)
(0 -1.106861271e-15 -9.807256169e-15)
(0 -8.5991583e-16 -8.68648032e-15)
(0 -6.67345619e-16 -7.694982268e-15)
(0 -5.172948154e-16 -6.819510366e-15)
(0 -4.004632432e-16 -6.047906724e-15)
(0 -3.09566237e-16 -5.369141899e-15)
(0 -2.389041351e-16 -4.773298072e-15)
(0 -1.840208989e-16 -4.251521505e-15)
(0 -1.41434443e-16 -3.795958256e-15)
(0 -1.084242135e-16 -3.399682408e-15)
(0 -8.286419093e-17 -3.056622832e-15)
(0 -6.309176351e-17 -2.761492297e-15)
(0 -4.780480343e-17 -2.509721224e-15)
(0 -3.598083362e-17 -2.297397456e-15)
(0 -2.68134214e-17 -2.121212698e-15)
(0 -1.966193548e-17 -1.978415951e-15)
(0 -1.401159168e-17 -1.866773968e-15)
(0 -9.441325932e-18 -1.784538653e-15)
(0 -5.598179657e-18 -1.730421248e-15)
(0 -1.908910526e-18 -1.703573154e-15)
(0 0.2279428368 0.02808553066)
(0 0.2520326765 0.08765038148)
(0 0.2236806029 0.03358010746)
(0 -0.06313210286 -0.4649003244)
(0 -0.5348413794 -1.300613588)
(0 -0.8082286148 -1.809982569)
(0 -0.5134297358 -1.358792312)
(0 0.005346997472 -0.210484312)
(0 -5.158186158e-14 -9.972492127e-16)
(0 -1.009784143e-13 -1.818689549e-14)
(0 -9.265742428e-14 -3.309621928e-14)
(0 -8.168784795e-14 -4.384219222e-14)
(0 -6.953369914e-14 -5.040930526e-14)
(0 -5.754335416e-14 -5.340163161e-14)
(0 -4.655348752e-14 -5.365276967e-14)
(0 -3.697261719e-14 -5.198307321e-14)
(0 -2.89128041e-14 -4.90859434e-14)
(0 -2.230833005e-14 -4.549575573e-14)
(0 -1.700299581e-14 -4.159756493e-14)
(0 -1.280679299e-14 -3.765328702e-14)
(0 -9.528989761e-15 -3.383081785e-14)
(0 -6.995188277e-15 -3.023000895e-14)
(0 -5.054421331e-15 -2.690351644e-14)
(0 -3.580548491e-15 -2.387250708e-14)
(0 -2.470699148e-15 -2.113798631e-14)
(0 -1.642418956e-15 -1.868870155e-14)
(0 -1.0304541e-15 -1.650650168e-14)
(0 -5.836585942e-16 -1.456987345e-14)
(0 -2.622446812e-16 -1.285620587e-14)
(0 -3.544838059e-17 -1.134318636e-14)
(0 1.203947539e-16 -1.000961621e-14)
(0 2.234043126e-16 -8.835845444e-15)
(0 2.873935954e-16 -7.80396399e-15)
(0 3.228464057e-16 -6.897841431e-15)
(0 3.376816912e-16 -6.103076586e-15)
(0 3.378487758e-16 -5.406896909e-15)
(0 3.277887328e-16 -4.798033423e-15)
(0 3.107907909e-16 -4.266587283e-15)
(0 2.892668841e-16 -3.803897772e-15)
(0 2.649626358e-16 -3.402417406e-15)
(0 2.3911914e-16 -3.055597171e-15)
(0 2.125967551e-16 -2.757783271e-15)
(0 1.859696424e-16 -2.504125771e-15)
(0 1.595978243e-16 -2.290498896e-15)
(0 1.336820238e-16 -2.113432481e-15)
(0 1.08305365e-16 -1.970053887e-15)
(0 8.346511286e-17 -1.858039717e-15)
(0 5.90969407e-17 -1.775576647e-15)
(0 3.509301845e-17 -1.721330826e-15)
(0 1.158319695e-17 -1.694425343e-15)
(0 0.2717018715 0.01995724396)
(0 0.2800968864 0.06282172711)
(0 0.2945187212 0.09657021786)
(0 0.1903426493 -0.08055186687)
(0 -0.2466351126 -0.8432845874)
(0 -0.8113699337 -1.728899428)
(0 -0.7521444513 -1.748095028)
(0 -0.003095969526 -0.5113819947)
(0 -6.152622657e-14 -3.352211817e-15)
(0 -1.198398566e-13 -2.614145795e-14)
(0 -1.069526033e-13 -4.561159179e-14)
(0 -9.093764334e-14 -5.829004527e-14)
(0 -7.423281332e-14 -6.480485616e-14)
(0 -5.866593668e-14 -6.655497192e-14)
(0 -4.514047124e-14 -6.501180303e-14)
(0 -3.392914004e-14 -6.141666126e-14)
(0 -2.494172207e-14 -5.670184357e-14)
(0 -1.791467517e-14 -5.151445314e-14)
(0 -1.25272169e-14 -4.62749569e-14)
(0 -8.464197748e-15 -4.123832092e-14)
(0 -5.445309775e-15 -3.654544957e-14)
(0 -3.234976271e-15 -3.226222071e-14)
(0 -1.642182728e-15 -2.840732257e-14)
(0 -5.15737705e-16 -2.497126243e-14)
(0 2.620146324e-16 -2.19289063e-14)
(0 7.815002681e-16 -1.924749334e-14)
(0 1.11155754e-15 -1.689158736e-14)
(0 1.304187751e-15 -1.482600906e-14)
(0 1.398411089e-15 -1.3017468e-14)
(0 1.423323161e-15 -1.143537722e-14)
(0 1.400479641e-15 -1.00521683e-14)
(0 1.345736388e-15 -8.843312501e-15)
(0 1.270658394e-15 -7.787178311e-15)
(0 1.183592589e-15 -6.864806781e-15)
(0 1.090481278e-15 -6.059653903e-15)
(0 9.954769253e-16 -5.357329022e-15)
(0 9.014054917e-16 -4.745345383e-15)
(0 8.101147528e-16 -4.212891009e-15)
(0 7.227354332e-16 -3.750623294e-15)
(0 6.398763875e-16 -3.350487944e-15)
(0 5.617699444e-16 -3.005561298e-15)
(0 4.883796364e-16 -2.709914369e-15)
(0 4.194795711e-16 -2.458496557e-15)
(0 3.547124564e-16 -2.247037033e-15)
(0 2.936315876e-16 -2.071961837e-15)
(0 2.357308285e-16 -1.930324991e-15)
(0 1.804656486e-16 -1.819752107e-15)
(0 1.272675651e-16 -1.738395246e-15)
(0 7.555312413e-17 -1.684897992e-15)
(0 2.499657201e-17 -1.658369938e-15)
(0 0.3085532054 0.01820322505)
(0 0.3067855982 0.05317684927)
(0 0.3141570468 0.09627605921)
(0 0.3048381173 0.1121549319)
(0 0.08994935402 -0.3172835142)
(0 -0.6884032601 -1.404386781)
(0 -0.9389088867 -2.014984074)
(0 -0.01984352604 -0.9981720908)
(0 -7.574111043e-14 -7.270823017e-15)
(0 -1.456704089e-13 -3.953290037e-14)
(0 -1.248060116e-13 -6.491238506e-14)
(0 -1.008811123e-13 -7.889768475e-14)
(0 -7.779862579e-14 -8.396472958e-14)
(0 -5.775030103e-14 -8.300274053e-14)
(0 -4.141517686e-14 -7.842435049e-14)
(0 -2.866265773e-14 -7.197134931e-14)
(0 -1.901059598e-14 -6.479144886e-14)
(0 -1.188144338e-14 -5.758608364e-14)
(0 -6.726863584e-15 -5.075005894e-14)
(0 -3.07728565e-15 -4.447996546e-14)
(0 -5.528895442e-16 -3.88506749e-14)
(0 1.142938722e-15 -3.38662428e-14)
(0 2.236536947e-15 -2.949236907e-14)
(0 2.897867779e-15 -2.567635204e-14)
(0 3.253069938e-15 -2.235889664e-14)
(0 3.394899985e-15 -1.9480777e-14)
(0 3.391030182e-15 -1.698633604e-14)
(0 3.290460762e-15 -1.482509403e-14)
(0 3.128387158e-15 -1.29522649e-14)
(0 2.929851322e-15 -1.132867115e-14)
(0 2.712459473e-15 -9.920352918e-15)
(0 2.488394303e-15 -8.698044711e-15)
(0 2.265899315e-15 -7.636618025e-15)
(0 2.050370813e-15 -6.71454284e-15)
(0 1.84515945e-15 -5.913393833e-15)
(0 1.652157296e-15 -5.217411648e-15)
(0 1.472226746e-15 -4.613120862e-15)
(0 1.30551288e-15 -4.089001762e-15)
(0 1.151669949e-15 -3.63521093e-15)
(0 1.010024632e-15 -3.243344932e-15)
(0 8.796927151e-16 -2.906241447e-15)
(0 7.596614964e-16 -2.617812578e-15)
(0 6.488469782e-16 -2.3729057e-15)
(0 5.461325442e-16 -2.167187828e-15)
(0 4.503940656e-16 -1.997050113e-15)
(0 3.60515095e-16 -1.859529626e-15)