/*--------------------------------*- C++ -*----------------------------------*\
  =========                 |
  \\      /  F ield         | OpenFOAM: The Open Source CFD Toolbox
   \\    /   O peration     | Website:  https://openfoam.org
    \\  /    A nd           | Version:  6
     \\/     M anipulation  |
\*---------------------------------------------------------------------------*/
FoamFile
{
    version     2.0;
    format      ascii;
    class       volScalarField;
    location    "0.06";
    object      ViscousDissipation;
}
// * * * * * * * * * * * * * * * * * * * * * * * * * * * * * * * * * * * * * //

dimensions      [1 -1 -3 0 0 0 0];

internalField   nonuniform List<scalar> 
2500
(
4.655893998
3.381928941
0.7844172862
0.4538339968
0.1158186766
0.03312303966
0.0009291062566
0.0007581369595
0.0006728059015
1.089800187e-24
1.121895407e-26
2.239152079e-26
3.637432413e-26
5.107079461e-26
6.487143622e-26
7.648081439e-26
8.504372724e-26
9.017276484e-26
9.189733466e-26
9.056413272e-26
8.671983696e-26
8.100036093e-26
7.404160732e-26
6.641767471e-26
5.86057586e-26
5.097305486e-26
4.377945009e-26
3.718992985e-26
3.129169433e-26
2.611235058e-26
2.163687443e-26
1.78221141e-26
1.460838672e-26
1.192821822e-26
9.712555109e-27
7.894894685e-27
6.413798098e-27
5.214209937e-27
4.247941568e-27
3.473601876e-27
2.856190086e-27
2.366506131e-27
1.980486416e-27
1.678536342e-27
1.444904417e-27
1.267124751e-27
1.135545036e-27
1.042960154e-27
9.844150921e-28
1.018316841e-27
4.486527392
4.895487579
1.495232352
0.5397452495
0.1224226679
0.03529281986
0.006291567584
0.001232131391
0.02331288781
1.111470067e-24
1.68165595e-26
2.790422342e-26
4.175784627e-26
5.62505346e-26
6.976230216e-26
8.10013121e-26
8.912829547e-26
9.377974777e-26
9.501176081e-26
9.319594775e-26
8.889907371e-26
8.277090658e-26
7.545495203e-26
6.752755036e-26
5.946409955e-26
5.162734282e-26
4.427127522e-26
3.755449468e-26
3.155796969e-26
2.630362772e-26
2.177151349e-26
1.791434896e-26
1.466909742e-26
1.196562228e-26
9.732797005e-27
7.902530767e-27
6.412184564e-27
5.205806409e-27
4.234544367e-27
3.456520604e-27
2.836379624e-27
2.344664244e-27
1.957125167e-27
1.654033593e-27
1.419539578e-27
1.24109954e-27
1.108981028e-27
1.015829986e-27
9.570171404e-28
1.479411091e-27
2.053522749
4.803343832
3.466054053
1.221263443
0.2423712736
0.07402613384
0.01693823299
0.001968895409
0.07862857175
1.157414302e-24
2.876127919e-26
3.963018274e-26
5.316966674e-26
6.718284678e-26
8.003636797e-26
9.045182226e-26
9.762709141e-26
1.012505257e-25
1.014341511e-25
9.860052802e-26
9.33565083e-26
8.637864723e-26
7.832427181e-26
6.977266341e-26
6.119413739e-26
5.294122164e-26
4.525504748e-26
3.828058983e-26
3.208571561e-26
2.668052858e-26
2.20348832e-26
1.809302308e-26
1.478505209e-26
1.203540892e-26
9.768756898e-27
7.913788854e-27
6.405441075e-27
5.185954141e-27
4.205141647e-27
3.42014846e-27
2.794908252e-27
2.299449774e-27
1.909153682e-27
1.604025684e-27
1.368025641e-27
1.188473907e-27
1.055543779e-27
9.618402858e-28
9.026856142e-28
2.374219676e-27
0.4242436747
1.965925395
3.875888186
2.783288683
0.6498090699
0.1596515417
0.04658197873
0.006027540445
0.1591504862
1.230628509e-24
4.873520471e-26
5.913229059e-26
7.202764685e-26
8.511784888e-26
9.676264244e-26
1.057185858e-25
1.11252708e-25
1.131413021e-25
1.11586427e-25
1.070893293e-25
1.003161712e-25
9.198081435e-26
8.275738063e-26
7.322534957e-26
6.384344906e-26
5.494545775e-26
4.675042795e-26
3.938074669e-26
3.288302824e-26
2.72484918e-26
2.243090599e-26
1.83612544e-26
1.49589935e-26
1.21401942e-26
9.82305998e-27
7.93137098e-27
6.396374516e-27
5.157570824e-27
4.162756464e-27
3.36760325e-27
2.734976246e-27
2.234133426e-27
1.839902274e-27
1.531893388e-27
1.293786079e-27
1.112703864e-27
9.786869933e-28
8.842622773e-28
8.246805533e-28
3.649287868e-27
0.3033992793
0.1816640273
2.3001701
3.509569391
1.690689478
0.2233789488
0.0802485316
0.01967405666
0.2350308844
1.337163045e-24
7.967348867e-26
8.913248358e-26
1.007833966e-25
1.121937419e-25
1.21747506e-25
1.282805063e-25
1.311795247e-25
1.303576323e-25
1.261475399e-25
1.191580206e-25
1.101309101e-25
9.982266885e-26
8.892097493e-26
7.799656862e-26
6.748451946e-26
5.768667156e-26
4.878710459e-26
4.087387053e-26
3.396215252e-26
2.8015794e-26
2.296560191e-26
1.872386415e-26
1.51951765e-26
1.228402951e-26
9.899750846e-27
7.959412175e-27
6.389250294e-27
5.125060779e-27
4.111924633e-27
3.303537807e-27
2.661336814e-27
2.153552448e-27
1.75427725e-27
1.442598504e-27
1.201825036e-27
1.018820426e-27
8.834455817e-28
7.881069323e-28
7.279361664e-28
5.22908835e-27
0.7454717402
0.3300392888
0.7973807438
2.900310817
2.88654948
0.5222862076
0.05300983499
0.04122225597
0.2344059498
1.486115822e-24
1.264668086e-25
1.341018449e-25
1.434052245e-25
1.518160833e-25
1.578187128e-25
1.604116243e-25
1.591808905e-25
1.542423517e-25
1.461062261e-25
1.355153916e-25
1.232959385e-25
1.102416809e-25
9.703944874e-26
8.423189766e-26
7.220944652e-26
6.122162894e-26
5.139913606e-26
4.2779862e-26
3.533447244e-26
2.898893014e-26
2.36428471e-26
1.918348757e-26
1.549580124e-26
1.246912793e-26
1.000128577e-26
8.000713831e-27
6.387244107e-27
5.091964241e-27
4.056522096e-27
3.232127194e-27
2.578425875e-27
2.062366682e-27
1.657127961e-27
1.341148144e-27
1.097277839e-27
9.120591979e-28
7.751299061e-28
6.787436538e-28
6.178852291e-28
7.019216608e-27
1.302835542
1.559022262
0.1762559614
1.991014143
3.763398795
1.158952209
0.001865790068
0.05596436285
0.116933003
1.691109475e-24
1.971284273e-25
2.012900578e-25
2.062146852e-25
2.093018304e-25
2.092977371e-25
2.055120277e-25
1.978510852e-25
1.867184491e-25
1.72849494e-25
1.571363011e-25
1.404796969e-25
1.236853533e-25
1.074054405e-25
9.211827129e-26
7.813484248e-26
6.562134064e-26
5.462874247e-26
4.512329475e-26
3.701412186e-26
3.017613845e-26
2.446777269e-26
1.974380734e-26
1.586405059e-26
1.269868628e-26
1.013113041e-26
8.059116439e-27
6.394595486e-27
5.06290203e-27
4.001514127e-27
3.158637787e-27
2.491767535e-27
1.966317544e-27
1.554376725e-27
1.23361317e-27
9.863352291e-28
7.987055617e-28
6.600986148e-28
5.625883755e-28
5.009894923e-28
8.911981862e-27
1.608072053
3.020702478
0.5190263358
1.131157005
4.198922111
2.407298952
0.09296710839
0.04834421125
0.005290097292
1.974072531e-24
3.050751696e-25
3.02565719e-25
2.99320445e-25
2.929439057e-25
2.827515903e-25
2.686134129e-25
2.509293136e-25
2.304867964e-25
2.082771134e-25
1.853240145e-25
1.625551506e-25
1.407250465e-25
1.203844558e-25
1.018841798e-25
8.540020632e-26
7.096891963e-26
5.85242381e-26
4.79316376e-26
3.901652984e-26
3.158622826e-26
2.544581319e-26
2.040876248e-26
1.630341037e-26
1.297627969e-26
1.029320246e-26
8.138972477e-27
6.416099219e-27
5.043078064e-27
3.952464329e-27
3.088940043e-27
2.407489086e-27
1.871744481e-27
1.45253638e-27
1.126646633e-27
8.757622122e-28
6.856124925e-28
5.452724331e-28
4.466125305e-28
3.84255914e-28
1.079263024e-26
1.426037412
3.999296367
1.593791028
0.4308772393
4.352873588
4.347068358
0.519535764
0.01943793479
0.06488001914
2.370528929e-24
4.733035226e-25
4.576801455e-25
4.390844075e-25
4.157770635e-25
3.881901354e-25
3.571499274e-25
3.237717172e-25
2.8930076e-25
2.549526336e-25
2.217877506e-25
1.906359642e-25
1.620702586e-25
1.364184561e-25
1.137986474e-25
9.416536644e-26
7.735689537e-26
6.313775643e-26
5.123351286e-26
4.135715976e-26
3.322769219e-26
2.658208238e-26
2.118209724e-26
1.681732334e-26
1.330557319e-26
1.04916092e-26
8.244890035e-27
6.456843207e-27
5.038004981e-27
3.915245042e-27
3.029202835e-27
2.331999706e-27
1.785249177e-27
1.358361491e-27
1.027123548e-27
7.725278198e-28
5.79821453e-28
4.37747473e-28
3.37951825e-28
2.748468978e-28
1.254607438e-26
0.9245930562
4.078079103
3.154807602
0.1686878795
3.542970613
6.897281002
1.719363513
0.0009757795689
0.2531097568
2.938987936e-24
7.414493208e-25
7.000153707e-25
6.524054266e-25
5.985291822e-25
5.409726106e-25
4.821226281e-25
4.240256798e-25
3.683354919e-25
3.162928934e-25
2.687318372e-25
2.261129202e-25
1.885793488e-25
1.560253882e-25
1.281668317e-25
1.046054654e-25
8.488287398e-26
6.852191658e-26
5.50562992e-26
4.404984949e-26
3.510757504e-26
2.788059698e-26
2.206680951e-26
1.740877129e-26
1.368997695e-26
1.073033745e-26
8.381434056e-27
6.521907452e-27
5.053193682e-27
3.895714116e-27
2.985556475e-27
2.27164006e-27
1.713332753e-27
1.278474485e-27
9.417573606e-28
6.834132675e-28
4.88163599e-28
3.443910223e-28
2.434986863e-28
1.796716333e-28
1.406379806e-26
0.3827093351
3.227526393
4.864196331
1.167287744
1.525779419
8.74846096
4.287668962
0.0853261183
0.1806530308
3.768546563e-24
1.17805167e-24
1.087300011e-24
9.844395707e-25
8.746381623e-25
7.648495534e-25
6.598401776e-25
5.625710498e-25
4.74665553e-25
3.967912883e-25
3.289475327e-25
2.70682629e-25
2.212610028e-25
1.797910019e-25
1.453200705e-25
1.169022572e-25
9.364286992e-26
7.472506458e-26
5.942287405e-26
4.710462898e-26
3.723001588e-26
2.934328438e-26
2.306444546e-26
1.807973894e-26
1.413220472e-26
1.101286078e-26
8.552755197e-27
6.615999274e-27
5.093786731e-27
3.899342587e-27
2.963713169e-27
2.232295357e-27
1.662001924e-27
1.218965674e-27
8.766947059e-28
6.146023178e-28
4.168465975e-28
2.714257335e-28
1.694848115e-28
1.049678324e-28
1.525055045e-26
0.1480606961
1.518283061
5.695481253
4.105159075
0.039070563
6.987970906
7.763241271
0.7187520868
0.2801506613
4.984184222e-24
1.91013213e-24
1.724367016e-24
1.513211403e-24
1.298903151e-24
1.096792266e-24
9.144691541e-25
7.547865511e-25
6.178461693e-25
5.022542748e-25
4.058881962e-25
3.263547001e-25
2.612577777e-25
2.083479859e-25
1.655977123e-25
1.312303722e-25
1.037216694e-25
8.17848029e-26
6.434737545e-26
5.052496825e-26
3.959444549e-26
3.096876745e-26
2.417423742e-26
1.883055842e-26
1.463373587e-26
1.134166635e-26
8.762151035e-27
6.743031881e-27
5.164145144e-27
3.930805008e-27
2.968558682e-27
2.218987443e-27
1.636361234e-27
1.184985636e-27
8.371080204e-28
5.712742057e-28
3.710479505e-28
2.240234137e-28
1.210754588e-28
5.589643877e-29
1.603042828e-26
0.1973130904
0.2205399841
4.015875122
7.636715892
1.888740273
2.558796597
10.26984235
2.79044519
5.277577716
7.20108225e-24
3.239941438e-24
2.816736439e-24
2.377755103e-24
1.962264469e-24
1.594473091e-24
1.281621835e-24
1.022147544e-24
8.105470756e-25
6.400003508e-25
5.036916979e-25
3.954153036e-25
3.097994911e-25
2.423361449e-25
1.893177354e-25
1.477372337e-25
1.151797084e-25
8.971964324e-26
6.982995787e-26
5.430447647e-26
4.21934698e-26
3.275095455e-26
2.539210881e-26
1.965915496e-26
1.519420009e-26
1.171772013e-26
9.011578986e-27
6.905666654e-27
5.267410012e-27
3.993554923e-27
3.003738612e-27
2.235470065e-27
1.640216117e-27
1.180355136e-27
8.268114835e-28
5.572248043e-28
3.545405808e-28
2.059342164e-28
1.020014051e-28
3.617545041e-29
1.635195246e-26
0.1339760227
0.0324367287
1.180213718
7.967575111
7.564966236
0.06742715308
10.20420018
7.065656516
60.51412491
1.087330701e-23
5.798983292e-24
4.764841569e-24
3.826769667e-24
3.015447396e-24
2.347164062e-24
1.813029245e-24
1.394012245e-24
1.069093514e-24
8.189200158e-25
6.27090093e-25
4.803152792e-25
3.68110947e-25
2.823366854e-25
2.167333725e-25
1.665156914e-25
1.280362783e-25
9.851885275e-26
7.585067162e-26
5.842317297e-26
4.501053463e-26
3.467750726e-26
2.670960191e-26
2.056023903e-26
1.581072375e-26
1.21399063e-26
9.301154735e-27
7.104851919e-27
5.405071095e-27
4.089417151e-27
3.071270488e-27
2.283858069e-27
1.675717036e-27
1.207222326e-27
8.479295423e-28
5.745447938e-28
3.693790087e-28
2.191792147e-28
1.142563148e-28
4.778047253e-29
1.619177918e-26
0.07064979793
0.0542239582
0.06870960272
4.064382446
12.81140947
3.72995063
7.188363336
13.71582172
357.0076681
1.719844048e-23
1.068731164e-23
8.289342886e-24
6.2905162e-24
4.703340503e-24
3.490255177e-24
2.581879255e-24
1.909149163e-24
1.413607129e-24
1.049222098e-24
7.811185932e-25
5.834426058e-25
4.372574151e-25
3.287746726e-25
2.479741673e-25
1.875693694e-25
1.422494841e-25
1.081309395e-25
8.236281955e-26
6.284358476e-26
4.801755025e-26
3.672831234e-26
2.811282212e-26
2.152451838e-26
1.647729903e-26
1.260449387e-26
9.628684256e-27
7.339402651e-27
5.576584037e-27
4.218236156e-27
3.171218905e-27
2.364325871e-27
1.743078374e-27
1.265799407e-27
9.00648844e-28
6.233844951e-28
4.156748039e-28
2.638342616e-28
1.578868563e-28
9.073896304e-29
1.555674639e-26
0.0544436686
0.05111582872
0.0308412697
0.7449203638
11.80483428
13.62069149
2.859925853
21.30799033
1361.649405
3.012402455e-23
2.075903631e-23
1.487604948e-23
1.054132771e-23
7.422271593e-24
5.223953954e-24
3.687595316e-24
2.616024306e-24
1.867199243e-24
1.341606811e-24
9.705144298e-25
7.067385689e-25
5.179155167e-25
3.817876761e-25
2.82972594e-25
2.10772352e-25
1.576943051e-25
1.184517325e-25
8.928642498e-26
6.750708316e-26
5.117274702e-26
3.887414273e-26
2.958153139e-26
2.253803083e-26
1.71842571e-26
1.310469932e-26
9.98928934e-27
7.605674476e-27
5.77908432e-27
4.377624304e-27
3.301473774e-27
2.474912068e-27
1.840406109e-27
1.354210312e-27
9.830830507e-28
7.018330694e-28
4.914875585e-28
3.379302371e-28
2.308998191e-28
1.630418678e-28
1.448404491e-26
0.05653689817
0.05469335824
0.08051457911
0.03146222839
5.401952125
22.8756076
2.312538902
25.66344707
3749.193337
5.900235428e-23
4.242777775e-23
2.743811423e-23
1.792120439e-23
1.178852225e-23
7.828446992e-24
5.25575579e-24
3.569807373e-24
2.453363183e-24
1.705548732e-24
1.198704908e-24
8.511347189e-25
6.100705321e-25
4.410666831e-25
3.213817801e-25
2.358271318e-25
1.741412721e-25
1.293135986e-25
9.650274473e-26
7.233102975e-26
5.441912063e-26
4.107574384e-26
3.108855591e-26
2.358172081e-26
1.79179417e-26
1.363042391e-26
1.037519291e-26
7.897388886e-27
6.007247502e-27
4.562853459e-27
3.45767004e-27
2.611464185e-27
1.963664609e-27
1.468476633e-27
1.091275102e-27
8.059344637e-28
5.928519918e-28
4.374889145e-28
3.293044503e-28
2.606901977e-28
1.303941588e-26
0.05979235092
0.06266447414
0.07855543917
0.2111063876
0.6894186437
19.42752624
11.84049284
21.95464811
7827.738553
1.22368306e-22
8.948500129e-23
5.139783698e-23
3.061422903e-23
1.868221946e-23
1.165568294e-23
7.424769424e-24
4.823070116e-24
3.190621901e-24
2.14645686e-24
1.466361916e-24
1.015835025e-24
7.126659924e-25
5.056875396e-25
3.624956249e-25
2.62227397e-25
1.912394906e-25
1.404778965e-25
1.038510178e-25
7.720742391e-26
5.768388619e-26
4.32836132e-26
3.259969014e-26
2.463139071e-26
1.866068284e-26
1.416824456e-26
1.077572807e-26
8.205662453e-27
6.253339756e-27
4.766926843e-27
3.633279932e-27
2.767749766e-27
2.106804635e-27
1.602660469e-27
1.219352808e-27
9.298536885e-28
7.139529352e-28
5.567047698e-28
4.472992953e-28
3.778851553e-28
1.13134076e-26
0.05848282363
0.06792629855
0.06216353296
0.2009849927
0.07749247877
8.500762563
27.34291248
10.89162048
12735.12833
2.325761829e-22
1.889781034e-22
9.581062135e-23
5.169857336e-23
2.915279893e-23
1.705911144e-23
1.03082145e-23
6.40759538e-24
4.084098597e-24
2.66183926e-24
1.769674719e-24
1.197545618e-24
8.232649197e-25
5.73965252e-25
4.051884247e-25
2.892346044e-25
2.085086813e-25
1.516331241e-25
1.111287707e-25
8.200378483e-26
6.087936697e-26
4.543873537e-26
3.407426897e-26
2.565814662e-26
1.939115767e-26
1.470172381e-26
1.117762139e-26
8.519279329e-27
6.507489207e-27
4.980854663e-27
3.819895589e-27
2.935746994e-27
2.262061962e-27
1.74917049e-27
1.359841513e-27
1.066195116e-27
8.474482681e-28
6.882715705e-28
5.776014852e-28
5.073591697e-28
9.415866129e-27
0.05233915704
0.06167180976
0.06227263787
0.1093077315
0.3728694313
1.628485246
35.4544115
1.387929465
16354.52781
4.326758181e-22
3.817668614e-22
1.716242692e-22
8.414295195e-23
4.399074739e-23
2.422511543e-23
1.39294422e-23
8.308778389e-24
5.11536085e-24
3.237240842e-24
2.098729945e-24
1.389841483e-24
9.378138271e-25
6.433749029e-25
4.478950574e-25
3.158785146e-25
2.253451968e-25
1.624012132e-25
1.180969159e-25
8.656691357e-26
6.390567075e-26
4.747447664e-26
3.546653368e-26
2.662941991e-26
2.008519335e-26
1.521207635e-26
1.156557567e-26
8.825223108e-27
6.758187233e-27
5.194137211e-27
4.007701399e-27
3.106110699e-27
2.420419666e-27
1.899222023e-27
1.504122855e-27
1.206460416e-27
9.849263297e-28
8.238394409e-28
7.119035727e-28
6.408325632e-28
7.468973658e-27
0.04261991129
0.0483325685
0.06579698845
0.06307233788
0.2881765515
0.408077378
29.1026839
1.778840069
16455.13624
1.1464331e-21
6.851512981e-22
2.819336057e-22
1.282077416e-22
6.29970634e-23
3.2952509e-23
1.815027394e-23
1.044136297e-23
6.233964964e-24
3.843329249e-24
2.436569889e-24
1.582914683e-24
1.0506165e-24
7.105866221e-25
4.886528947e-25
3.40991161e-25
2.410462558e-25
1.723538692e-25
1.244905014e-25
9.072992557e-26
6.665533449e-26
4.931972416e-26
3.672783078e-26
2.751058049e-26
2.071701478e-26
1.567918673e-26
1.192314115e-26
9.109452932e-27
6.993001415e-27
5.395434671e-27
4.186113395e-27
3.268789652e-27
2.572208859e-27
2.043425088e-27
1.643012915e-27
1.341618964e-27
1.117470294e-27
9.545746513e-28
8.41430007e-28
7.695678386e-28
5.59927481e-27
0.03041495908
0.03456758696
0.05664631309
0.05666880192
0.1200105037
0.9686692764
19.73387607
9.286691072
13178.08211
2.788978923e-21
1.050192366e-21
4.140908459e-22
1.797825835e-22
8.456594202e-23
4.253261653e-23
2.263438609e-23
1.26385644e-23
7.354732588e-24
4.435618199e-24
2.759515653e-24
1.763942677e-24
1.154615545e-24
7.716546067e-25
5.252214445e-25
3.632804194e-25
2.548546157e-25
1.810396511e-25
1.300352429e-25
9.432250325e-26
6.901984197e-26
5.090317432e-26
3.780955984e-26
2.826706932e-26
2.126087329e-26
1.608292064e-26
1.223382158e-26
9.357873287e-27
7.19945174e-27
5.573376905e-27
4.344540367e-27
3.413750926e-27
2.70780467e-27
2.172458081e-27
1.76741822e-27
1.462749832e-27
1.236289181e-27
1.071782249e-27
9.575536907e-28
8.849822565e-28
3.929229673e-27
0.0176415623
0.02297155945
0.03937223614
0.0768765378
0.04486647616
1.760896021
12.20292365
19.0125937
8341.920565
4.118234748e-21
1.414383279e-21
5.476869846e-22
2.316777408e-22
1.059002623e-22
5.179419003e-23
2.686381272e-23
1.466143496e-23
8.363554843e-24
4.957970655e-24
3.039208177e-24
1.918248251e-24
1.24204228e-24
8.223790729e-25
5.552839832e-25
3.81442912e-25
2.660223997e-25
1.880205642e-25
1.344689087e-25
9.718371465e-26
7.089756311e-26
5.215845513e-26
3.866664282e-26
2.886687844e-26
2.169292085e-26
1.640461767e-26
1.248231948e-26
9.557412847e-27
7.365973658e-27
5.717443062e-27
4.473201399e-27
3.531750018e-27
2.818359364e-27
2.277771627e-27
1.869016301e-27
1.561703835e-27
1.333365388e-27
1.167542504e-27
1.052424404e-27
9.792710121e-28
2.568892776e-27
0.007085393237
0.01429529692
0.02236259069
0.09700830182
0.06100541059
2.10330955
6.559257056
28.20015581
3474.469059
3.670546467e-21
1.719716184e-21
6.591595153e-22
2.74784406e-22
1.233907853e-22
5.9256973e-23
3.020879607e-23
1.623220709e-23
9.13361504e-24
5.350571547e-24
3.246561042e-24
2.03127892e-24
1.305419581e-24
8.588211854e-25
5.767159544e-25
3.94306275e-25
2.738879502e-25
1.929144945e-25
1.375653646e-25
9.917606964e-26
7.220228818e-26
5.302954722e-26
3.926115097e-26
2.928311785e-26
2.199313245e-26
1.662860916e-26
1.26557909e-26
9.697101715e-27
7.482870999e-27
5.818824316e-27
4.563921109e-27
3.615074249e-27
2.89650517e-27
2.352259247e-27
1.940900736e-27
1.631728228e-27
1.402063425e-27
1.235307483e-27
1.119556572e-27
1.045989256e-27
1.608330102e-27
0.001224047362
0.009566317223
0.0130729361
0.1018364893
0.1326415668
2.023445772
5.172027634
32.9139525
426.2175682
2.466690107e-21
1.895955396e-21
7.232745919e-22
2.995294586e-22
1.333466404e-22
6.345736721e-23
3.206895053e-23
1.709551291e-23
9.552261253e-24
5.561931863e-24
3.357232119e-24
2.091155228e-24
1.338775277e-24
8.778939546e-25
5.878793673e-25
4.009793174e-25
2.779543372e-25
1.954373766e-25
1.391579207e-25
1.001989109e-25
7.287123341e-26
5.347580665e-26
3.956563213e-26
2.949635093e-26
2.214704239e-26
1.674357959e-26
1.274496308e-26
9.769024478e-27
7.543153371e-27
5.871177111e-27
4.610819749e-27
3.6581843e-27
2.936957753e-27
2.390830648e-27
1.978130406e-27
1.667996878e-27
1.437645143e-27
1.270404874e-27
1.154324852e-27
1.080542312e-27
1.11134762e-27
0.001224057088
0.00956632496
0.0130729496
0.1018364945
0.1326415064
2.02344623
5.17202797
32.91395273
426.2178203
2.466690185e-21
1.895955338e-21
7.232745493e-22
2.995294448e-22
1.333466406e-22
6.345737176e-23
3.206895541e-23
1.709551689e-23
9.552264177e-24
5.561933921e-24
3.357233541e-24
2.091156208e-24
1.338775955e-24
8.778944291e-25
5.878797037e-25
4.009795593e-25
2.779545138e-25
1.954375072e-25
1.391580185e-25
1.001989848e-25
7.287128978e-26
5.347584988e-26
3.956566538e-26
2.94963765e-26
2.214706201e-26
1.674359454e-26
1.274497434e-26
9.769032815e-27
7.54315937e-27
5.871181237e-27
4.610822373e-27
3.658185718e-27
2.936958205e-27
2.390830328e-27
1.978129474e-27
1.667995466e-27
1.43764336e-27
1.270402816e-27
1.154322599e-27
1.080539993e-27
1.11101539e-27
0.007085418275
0.01429531748
0.02236262821
0.09700828995
0.06100534556
2.103310263
6.559256631
28.20015244
3474.469577
3.670546864e-21
1.71971594e-21
6.591593636e-22
2.747843562e-22
1.233907825e-22
5.925698506e-23
3.020880987e-23
1.623221854e-23
9.133623532e-24
5.350577548e-24
3.2465652e-24
2.031281789e-24
1.305421571e-24
8.588225793e-25
5.76716944e-25
3.943069878e-25
2.738884712e-25
1.929148805e-25
1.375656541e-25
9.917628893e-26
7.220245564e-26
5.302967581e-26
3.926125002e-26
2.928319416e-26
2.199319108e-26
1.662865391e-26
1.265582467e-26
9.697126764e-27
7.482889073e-27
5.818836799e-27
4.5639291e-27
3.615078632e-27
2.896506659e-27
2.352258421e-27
1.940898072e-27
1.631724122e-27
1.402058207e-27
1.235301434e-27
1.119549936e-27
1.04598242e-27
1.60733765e-27
0.01764158902
0.02297158294
0.03937226717
0.07687652798
0.04486666283
1.760896596
12.20291897
19.0125876
8341.920332
4.118235002e-21
1.414382688e-21
5.47686671e-22
2.316776368e-22
1.059002489e-22
5.179420586e-23
2.686383337e-23
1.466145265e-23
8.363568139e-24
4.957980116e-24
3.039214762e-24
1.91825281e-24
1.242045451e-24
8.223813009e-25
5.552855698e-25
3.814440585e-25
2.660232403e-25
1.88021189e-25
1.344693788e-25
9.718407186e-26
7.089783671e-26
5.215866585e-26
3.86668056e-26
2.886700421e-26
2.169301777e-26
1.640469187e-26
1.24823757e-26
9.557454711e-27
7.366004032e-27
5.717464204e-27
4.473215111e-27
3.531757747e-27
2.818362283e-27
2.277770694e-27
1.869012302e-27
1.561697424e-27
1.333357115e-27
1.167532838e-27
1.052413753e-27
9.792600123e-28
2.567252775e-27
0.03041496699
0.03456758841
0.05664627775
0.05666879213
0.1200105933
0.96866797
19.73387094
9.286676949
13178.08169
2.788976745e-21
1.050191243e-21
4.140903292e-22
1.797824128e-22
8.456591216e-23
4.25326325e-23
2.26344112e-23
1.263858676e-23
7.354749652e-24
4.435630437e-24
2.759524214e-24
1.763948628e-24
1.154619701e-24
7.716575384e-25
5.252235414e-25
3.632819415e-25
2.548557371e-25
1.810404886e-25
1.30035876e-25
9.432298658e-26
6.902021384e-26
5.090346197e-26
3.780978299e-26
2.826724247e-26
2.12610073e-26
1.608302373e-26
1.223390008e-26
9.357932115e-27
7.19949476e-27
5.573407183e-27
4.344560358e-27
3.41376261e-27
2.707809655e-27
2.172457683e-27
1.767413527e-27
1.462741749e-27
1.236278475e-27
1.071769574e-27
9.575396211e-28
8.849676706e-28
3.926963141e-27
0.04261988538
0.04833251647
0.06579685765
0.0630721975
0.2881751814
0.4080755333
29.10266836
1.778829024
16455.13011
1.146428781e-21
6.851495695e-22
2.819329071e-22
1.282075143e-22
6.299701838e-23
3.295252376e-23
1.815030181e-23
1.044138857e-23
6.233984727e-24
3.843343508e-24
2.436579904e-24
1.582921672e-24
1.050621401e-24
7.105900966e-25
4.886553934e-25
3.409929857e-25
2.410476086e-25
1.723548859e-25
1.244912748e-25
9.073051963e-26
6.665579426e-26
4.932008184e-26
3.672810981e-26
2.751079822e-26
2.071718425e-26
1.56793179e-26
1.192324169e-26
9.109528877e-27
6.993057507e-27
5.395474697e-27
4.186140397e-27
3.268806094e-27
2.572216752e-27
2.043426085e-27
1.643008387e-27
1.341610061e-27
1.117457991e-27
9.545597894e-28
8.414133263e-28
7.695504472e-28
5.596410947e-27
0.05233910406
0.06167170273
0.06227244682
0.1093071662
0.3728673956
1.628481922
35.45438318
1.387926588
16354.51032
4.326734533e-22
3.817647713e-22
1.716235067e-22
8.414270395e-23
4.399069657e-23
2.422513057e-23
1.392947227e-23
8.308806223e-24
5.115382388e-24
3.237256397e-24
2.098740885e-24
1.389849138e-24
9.378192163e-25
6.433787444e-25
4.47897838e-25
3.158805601e-25
2.253467249e-25
1.624023707e-25
1.180978032e-25
8.656760033e-26
6.390620613e-26
4.747489608e-26
3.546686313e-26
2.662967872e-26
2.00853962e-26
1.521223449e-26
1.156569788e-26
8.825316283e-27
6.758256857e-27
5.19418768e-27
4.007736265e-27
3.106132853e-27
2.420431478e-27
1.899225453e-27
1.504119538e-27
1.206451731e-27
9.849134542e-28
8.238233992e-28
7.118852722e-28
6.40813324e-28
7.465549619e-27
0.05848278576
0.06792619823
0.06216326021
0.2009837898
0.07749253524
8.500732828
27.34292256
10.89156785
12735.12164
2.325744453e-22
1.889765519e-22
9.580997554e-23
5.169834796e-23
2.915275453e-23
1.705913031e-23
1.030824716e-23
6.407624911e-24
4.084121189e-24
2.661855472e-24
1.769686091e-24
1.197553579e-24
8.232705442e-25
5.739692843e-25
4.051913653e-25
2.892367862e-25
2.085103263e-25
1.516343819e-25
1.111297438e-25
8.20045447e-26
6.087996443e-26
4.54392073e-26
3.407464262e-26
2.565844248e-26
1.939139141e-26
1.470190758e-26
1.11777647e-26
8.519389756e-27
6.507572795e-27
4.980916294e-27
3.819939236e-27
2.935775905e-27
2.262078819e-27
1.749177524e-27
1.359840595e-27
1.066187836e-27
8.474359968e-28
6.882555092e-28
5.775827082e-28
5.073391878e-28
9.411926721e-27
0.05979240391
0.06266448356
0.07855518122
0.2111061801
0.6894119671
19.42749326
11.84051914
21.9546048
7827.747061
1.22367375e-22
8.948411957e-23
5.139732792e-23
3.061403918e-23
1.868218966e-23
1.165570915e-23
7.424805594e-24
4.823101104e-24
3.190644984e-24
2.146473176e-24
1.466373277e-24
1.015842965e-24
7.126716169e-25
5.05691597e-25
3.624986093e-25
2.622296337e-25
1.912411951e-25
1.404792141e-25
1.038520481e-25
7.720823677e-26
5.768453161e-26
4.32841278e-26
3.260010126e-26
2.463171913e-26
1.866094463e-26
1.41684523e-26
1.077589172e-26
8.205790004e-27
6.253437648e-27
4.767000315e-27
3.633333274e-27
2.767786515e-27
2.106827725e-27
1.602672358e-27
1.219355573e-27
9.298491089e-28
7.139425582e-28
5.566899658e-28
4.472813036e-28
3.778656502e-28
1.130900491e-26
0.05653709376
0.05469354892
0.08051481362
0.03146246274
5.40194098
22.87561232
2.312540296
25.66345506
3749.198251
5.9002395e-23
4.242698169e-23
2.743763197e-23
1.792104327e-23
1.178851347e-23
7.828484291e-24
5.255796461e-24
3.569839606e-24
2.453386225e-24
1.705564644e-24
1.198715856e-24
8.511423434e-25
6.100759482e-25
4.410706185e-25
3.213847043e-25
2.358293494e-25
1.741429834e-25
1.293149382e-25
9.650380499e-26
7.233187596e-26
5.441979991e-26
4.107629107e-26
3.108899746e-26
2.358207697e-26
1.791822837e-26
1.363065368e-26
1.037537588e-26
7.897533234e-27
6.007359886e-27
4.562939341e-27
3.457733928e-27
2.611509821e-27
1.963695121e-27
1.468494657e-27
1.091282883e-27
8.05933943e-28
5.92844873e-28
4.37476725e-28
3.292885886e-28
2.606724698e-28
1.30346088e-26
0.05444398793
0.05111624424
0.03084166083
0.7449185016
11.80483562
13.62069928
2.859926796
21.30800295
1361.65117
3.012406287e-23
2.075802477e-23
1.487556006e-23
1.054121224e-23
7.422295922e-24
5.224006505e-24
3.687641001e-24
2.616057233e-24
1.867221587e-24
1.341621796e-24
9.705245944e-25
7.067456226e-25
5.179205477e-25
3.817913657e-25
2.829753701e-25
2.107744872e-25
1.57695977e-25
1.184530601e-25
8.928749024e-26
6.750794433e-26
5.117344665e-26
3.887471273e-26
2.958199626e-26
2.253840971e-26
1.718456521e-26
1.31049489e-26
9.989490342e-27
7.605835047e-27
5.77921117e-27
4.377722991e-27
3.301548923e-27
2.474967547e-27
1.840445172e-27
1.354235723e-27
9.830971809e-28
7.018379855e-28
4.914850962e-28
3.379220633e-28
2.308874821e-28
1.630272668e-28
1.447889863e-26
0.07065020406
0.05422445049
0.06870936408
4.064383438
12.81141296
3.72995083
7.188367701
13.71582641
357.0082227
1.719808566e-23
1.068588911e-23
8.288908434e-24
6.290495367e-24
4.703413963e-24
3.49032525e-24
2.581928834e-24
1.909181471e-24
1.413627864e-24
1.049235595e-24
7.811276328e-25
5.834488747e-25
4.372619206e-25
3.2877802e-25
2.479767263e-25
1.875713715e-25
1.422510788e-25
1.081322266e-25
8.236386813e-26
6.284444443e-26
4.801825776e-26
3.672889573e-26
2.811330332e-26
2.152491486e-26
1.647762494e-26
1.260476077e-26
9.628901709e-27
7.339578583e-27
5.576725062e-27
4.218347807e-27
3.17130583e-27
2.364391986e-27
1.743126996e-27
1.265833372e-27
9.006706024e-28
6.233962011e-28
4.156783928e-28
2.638315157e-28
1.578794584e-28
9.072886083e-29
1.555133175e-26
0.1339763759
0.03243701599
1.180213559
7.967576232
7.564964535
0.06742755094
10.204206
7.065649007
60.51412535
1.086593595e-23
5.796952302e-24
4.764699897e-24
3.826917942e-24
3.015577964e-24
2.347247051e-24
1.813078593e-24
1.394041619e-24
1.069111485e-24
8.189314582e-25
6.270977185e-25
4.803206027e-25
3.681148285e-25
2.82339624e-25
2.167356661e-25
1.665175237e-25
1.280377671e-25
9.852007671e-26
7.585168562e-26
5.842401699e-26
4.501123889e-26
3.467809536e-26
2.671009275e-26
2.056064803e-26
1.581106367e-26
1.214018779e-26
9.301386763e-27
7.105042036e-27
5.40522569e-27
4.089541631e-27
3.071369439e-27
2.283935385e-27
1.675776039e-27
1.207265869e-27
8.479601053e-28
5.745645751e-28
3.693900046e-28
2.191832916e-28
1.142552671e-28
4.777624341e-29
1.6186172e-26
0.1973129652
0.2205397345
4.015873221
7.636713939
1.888739269
2.558798718
10.26983752
2.790426315
5.277633206
7.199496915e-24
3.241847023e-24
2.817553824e-24
2.378106892e-24
1.962425324e-24
1.594552316e-24
1.28166368e-24
1.022171099e-24
8.105611629e-25
6.400092958e-25
5.036977226e-25
3.95419593e-25
3.098026978e-25
2.423386398e-25
1.893197363e-25
1.477388734e-25
1.15181072e-25
8.97207876e-26
6.983092341e-26
5.430529328e-26
4.219416129e-26
3.27515396e-26
2.539260305e-26
1.965957152e-26
1.519455015e-26
1.171801327e-26
9.011823422e-27
6.905869444e-27
5.26757722e-27
3.99369175e-27
3.003849513e-27
2.235558855e-27
1.640286069e-27
1.180409072e-27
8.268518692e-28
5.572538344e-28
3.545602678e-28
2.059464702e-28
1.020080998e-28
3.617846175e-29
1.634623276e-26
0.1480600066
1.518280133
5.695479238
4.105159208
0.03907099074
6.987967493
7.763231492
0.7187511228
0.2801577122
4.990566324e-24
1.911706535e-24